 Entering Gaussian System, Link 0=/software/gaussian_avx2/g16/g16
 Input=resp1-1_opt.gau
 Output=resp1-1_opt.log
 Initial command:
 /software/gaussian_avx2/g16/l1.exe "/local/Gau-198625.inp" -scrdir="/local/"
 Entering Link 1 = /software/gaussian_avx2/g16/l1.exe PID=    198626.
  
 Copyright (c) 1988,1990,1992,1993,1995,1998,2003,2009,2016,
            Gaussian, Inc.  All Rights Reserved.
  
 This is part of the Gaussian(R) 16 program.  It is based on
 the Gaussian(R) 09 system (copyright 2009, Gaussian, Inc.),
 the Gaussian(R) 03 system (copyright 2003, Gaussian, Inc.),
 the Gaussian(R) 98 system (copyright 1998, Gaussian, Inc.),
 the Gaussian(R) 94 system (copyright 1995, Gaussian, Inc.),
 the Gaussian 92(TM) system (copyright 1992, Gaussian, Inc.),
 the Gaussian 90(TM) system (copyright 1990, Gaussian, Inc.),
 the Gaussian 88(TM) system (copyright 1988, Gaussian, Inc.),
 the Gaussian 86(TM) system (copyright 1986, Carnegie Mellon
 University), and the Gaussian 82(TM) system (copyright 1983,
 Carnegie Mellon University). Gaussian is a federally registered
 trademark of Gaussian, Inc.
  
 This software contains proprietary and confidential information,
 including trade secrets, belonging to Gaussian, Inc.
  
 This software is provided under written license and may be
 used, copied, transmitted, or stored only in accord with that
 written license.
  
 The following legend is applicable only to US Government
 contracts under FAR:
  
                    RESTRICTED RIGHTS LEGEND
  
 Use, reproduction and disclosure by the US Government is
 subject to restrictions as set forth in subparagraphs (a)
 and (c) of the Commercial Computer Software - Restricted
 Rights clause in FAR 52.227-19.
  
 Gaussian, Inc.
 340 Quinnipiac St., Bldg. 40, Wallingford CT 06492
  
  
 ---------------------------------------------------------------
 Warning -- This program may not be used in any manner that
 competes with the business of Gaussian, Inc. or will provide
 assistance to any competitor of Gaussian, Inc.  The licensee
 of this program is prohibited from giving any competitor of
 Gaussian, Inc. access to this program.  By using this program,
 the user acknowledges that Gaussian, Inc. is engaged in the
 business of creating and licensing software in the field of
 computational chemistry and represents and warrants to the
 licensee that it is not a competitor of Gaussian, Inc. and that
 it will not use this program in any manner prohibited above.
 ---------------------------------------------------------------
  

 Cite this work as:
 Gaussian 16, Revision A.03,
 M. J. Frisch, G. W. Trucks, H. B. Schlegel, G. E. Scuseria, 
 M. A. Robb, J. R. Cheeseman, G. Scalmani, V. Barone, 
 G. A. Petersson, H. Nakatsuji, X. Li, M. Caricato, A. V. Marenich, 
 J. Bloino, B. G. Janesko, R. Gomperts, B. Mennucci, H. P. Hratchian, 
 J. V. Ortiz, A. F. Izmaylov, J. L. Sonnenberg, D. Williams-Young, 
 F. Ding, F. Lipparini, F. Egidi, J. Goings, B. Peng, A. Petrone, 
 T. Henderson, D. Ranasinghe, V. G. Zakrzewski, J. Gao, N. Rega, 
 G. Zheng, W. Liang, M. Hada, M. Ehara, K. Toyota, R. Fukuda, 
 J. Hasegawa, M. Ishida, T. Nakajima, Y. Honda, O. Kitao, H. Nakai, 
 T. Vreven, K. Throssell, J. A. Montgomery, Jr., J. E. Peralta, 
 F. Ogliaro, M. J. Bearpark, J. J. Heyd, E. N. Brothers, K. N. Kudin, 
 V. N. Staroverov, T. A. Keith, R. Kobayashi, J. Normand, 
 K. Raghavachari, A. P. Rendell, J. C. Burant, S. S. Iyengar, 
 J. Tomasi, M. Cossi, J. M. Millam, M. Klene, C. Adamo, R. Cammi, 
 J. W. Ochterski, R. L. Martin, K. Morokuma, O. Farkas, 
 J. B. Foresman, and D. J. Fox, Gaussian, Inc., Wallingford CT, 2016.
 
 ******************************************
 Gaussian 16:  ES64L-G16RevA.03 25-Dec-2016
                16-Jun-2023 
 ******************************************
 %nprocshared=10
 Will use up to   10 processors via shared memory.
 ----------------
 #n HF 6-31G* opt
 ----------------
 1/18=20,19=15,38=1/1,3;
 2/9=110,12=2,17=6,18=5,40=1/2;
 3/5=1,6=6,7=1,11=9,25=1,30=1,71=1/1,2,3;
 4//1;
 5/5=2,38=5/2;
 6/7=2,8=2,9=2,10=2,28=1/1;
 7//1,2,3,16;
 1/18=20,19=15/3(2);
 2/9=110/2;
 99//99;
 2/9=110/2;
 3/5=1,6=6,7=1,11=9,25=1,30=1,71=1/1,2,3;
 4/5=5,16=3,69=1/1;
 5/5=2,38=5/2;
 7//1,2,3,16;
 1/18=20,19=15/3(-5);
 2/9=110/2;
 6/7=2,8=2,9=2,10=2,19=2,28=1/1;
 99/9=1/99;
 --------
 1-1.mol2
 --------
 Symbolic Z-matrix:
 Charge =  2 Multiplicity = 1
 C                     6.5313   -2.936     0.8137 
 C                     5.0402   -2.7373    0.6994 
 C                     4.1717   -3.7876    0.8708 
 C                     2.8063   -3.6389    0.7723 
 C                     2.2682   -2.3937    0.4908 
 C                     0.823    -2.2656    0.3966 
 O                     0.1407   -3.2294    0.8165 
 N                     0.1787   -1.1337   -0.1331 
 C                    -1.197    -0.8976   -0.2722 
 C                    -2.2089   -1.7338    0.1369 
 C                    -3.5616   -1.4453   -0.0336 
 C                    -3.9068   -0.2713   -0.6376 
 C                    -5.3616    0.063    -0.8639 
 N                    -6.2068   -0.9687   -0.2903 
 C                    -7.6053   -0.7361   -0.6501 
 C                    -8.0055    0.7152   -0.4908 
 N                    -7.525     1.0993    0.8229 
 C                    -8.2792    2.1906    1.3858 
 C                    -7.3607   -0.0195    1.6911 
 C                    -6.1809   -0.8497    1.1831 
 C                    -2.9359    0.6063   -1.0689 
 C                    -3.3201    1.8834   -1.7271 
 F                    -2.1601    2.5804   -2.0663 
 F                    -3.9991    2.7301   -0.8458 
 F                    -4.0126    1.6679   -2.8797 
 C                    -1.6203    0.2925   -0.8865 
 C                     3.1537   -1.3543    0.3227 
 C                     4.5342   -1.4931    0.4199 
 C                     5.3832   -0.3493    0.2286 
 C                     6.0784    0.6219    0.0597 
 C                     6.8853    1.7923   -0.1482 
 C                     6.3737    3.013    -0.5477 
 N                     7.4026    3.8711   -0.641 
 C                     8.5596    3.2395   -0.3139 
 C                     9.8722    3.6835   -0.2569 
 C                     10.8327   2.769     0.12 
 C                     10.4149   1.4869    0.4106 
 N                     9.1351    1.0859    0.3464 
 N                     8.2032    1.9767   -0.0202 
 H                     6.7385   -3.9624    1.0339 
 H                     6.9143   -2.3184    1.5991 
 H                     6.9987   -2.6681   -0.1108 
 H                     4.5564   -4.7219    1.081 
 H                     2.1859   -4.4524    0.9077 
 H                     0.7705   -0.4125   -0.4475 
 H                    -1.953    -2.6226    0.5947 
 H                    -4.2863   -2.105     0.2898 
 H                    -5.5497    0.1304   -1.9151 
 H                    -5.5829    0.9981   -0.3932 
 H                    -5.8687   -1.87     -0.6275 
 H                    -8.2273   -1.3359   -0.019 
 H                    -7.7262   -0.9979   -1.6805 
 H                    -9.0689    0.8197   -0.5469 
 H                    -7.5942    1.3309   -1.2632 
 H                    -6.583     1.4717    0.7032 
 H                    -9.2909    1.8805    1.5446 
 H                    -8.2624    3.0211    0.7113 
 H                    -7.8443    2.4805    2.3195 
 H                    -8.2502   -0.6142    1.6877 
 H                    -7.1752    0.3129    2.6911 
 H                    -6.2315   -1.8281    1.6133 
 H                    -5.2736   -0.3592    1.4678 
 H                    -0.9044    0.9595   -1.2146 
 H                     2.7721   -0.4188    0.1126 
 H                     5.3822    3.2259   -0.7392 
 H                     10.1199   4.6585   -0.4872 
 H                     11.8281   3.0341    0.1824 
 H                     11.1272   0.7959    0.6937 
 

 GradGradGradGradGradGradGradGradGradGradGradGradGradGradGradGradGradGrad
 Berny optimization.
 Initialization pass.
                           ----------------------------
                           !    Initial Parameters    !
                           ! (Angstroms and Degrees)  !
 --------------------------                            --------------------------
 ! Name  Definition              Value          Derivative Info.                !
 --------------------------------------------------------------------------------
 ! R1    R(1,2)                  1.5086         estimate D2E/DX2                !
 ! R2    R(1,40)                 1.07           estimate D2E/DX2                !
 ! R3    R(1,41)                 1.07           estimate D2E/DX2                !
 ! R4    R(1,42)                 1.07           estimate D2E/DX2                !
 ! R5    R(2,3)                  1.3736         estimate D2E/DX2                !
 ! R6    R(2,28)                 1.3719         estimate D2E/DX2                !
 ! R7    R(3,4)                  1.377          estimate D2E/DX2                !
 ! R8    R(3,43)                 1.032          estimate D2E/DX2                !
 ! R9    R(4,5)                  1.3854         estimate D2E/DX2                !
 ! R10   R(4,44)                 1.032          estimate D2E/DX2                !
 ! R11   R(5,6)                  1.4539         estimate D2E/DX2                !
 ! R12   R(5,27)                 1.3758         estimate D2E/DX2                !
 ! R13   R(6,7)                  1.2533         estimate D2E/DX2                !
 ! R14   R(6,8)                  1.406          estimate D2E/DX2                !
 ! R15   R(8,9)                  1.4027         estimate D2E/DX2                !
 ! R16   R(8,45)                 0.9845         estimate D2E/DX2                !
 ! R17   R(9,10)                 1.375          estimate D2E/DX2                !
 ! R18   R(9,26)                 1.4046         estimate D2E/DX2                !
 ! R19   R(10,11)                1.3936         estimate D2E/DX2                !
 ! R20   R(10,46)                1.032          estimate D2E/DX2                !
 ! R21   R(11,12)                1.3646         estimate D2E/DX2                !
 ! R22   R(11,47)                1.032          estimate D2E/DX2                !
 ! R23   R(12,13)                1.5098         estimate D2E/DX2                !
 ! R24   R(12,21)                1.378          estimate D2E/DX2                !
 ! R25   R(13,14)                1.4518         estimate D2E/DX2                !
 ! R26   R(13,48)                1.07           estimate D2E/DX2                !
 ! R27   R(13,49)                1.07           estimate D2E/DX2                !
 ! R28   R(14,15)                1.4627         estimate D2E/DX2                !
 ! R29   R(14,20)                1.4784         estimate D2E/DX2                !
 ! R30   R(14,50)                1.02           estimate D2E/DX2                !
 ! R31   R(15,16)                1.5139         estimate D2E/DX2                !
 ! R32   R(15,51)                1.07           estimate D2E/DX2                !
 ! R33   R(15,52)                1.07           estimate D2E/DX2                !
 ! R34   R(16,17)                1.4506         estimate D2E/DX2                !
 ! R35   R(16,53)                1.07           estimate D2E/DX2                !
 ! R36   R(16,54)                1.07           estimate D2E/DX2                !
 ! R37   R(17,18)                1.441          estimate D2E/DX2                !
 ! R38   R(17,19)                1.4257         estimate D2E/DX2                !
 ! R39   R(17,55)                1.02           estimate D2E/DX2                !
 ! R40   R(18,56)                1.07           estimate D2E/DX2                !
 ! R41   R(18,57)                1.07           estimate D2E/DX2                !
 ! R42   R(18,58)                1.07           estimate D2E/DX2                !
 ! R43   R(19,20)                1.5295         estimate D2E/DX2                !
 ! R44   R(19,59)                1.07           estimate D2E/DX2                !
 ! R45   R(19,60)                1.07           estimate D2E/DX2                !
 ! R46   R(20,61)                1.07           estimate D2E/DX2                !
 ! R47   R(20,62)                1.07           estimate D2E/DX2                !
 ! R48   R(21,22)                1.4872         estimate D2E/DX2                !
 ! R49   R(21,26)                1.3648         estimate D2E/DX2                !
 ! R50   R(22,23)                1.3952         estimate D2E/DX2                !
 ! R51   R(22,24)                1.3981         estimate D2E/DX2                !
 ! R52   R(22,25)                1.3618         estimate D2E/DX2                !
 ! R53   R(26,63)                1.032          estimate D2E/DX2                !
 ! R54   R(27,28)                1.3909         estimate D2E/DX2                !
 ! R55   R(27,64)                1.032          estimate D2E/DX2                !
 ! R56   R(28,29)                1.4372         estimate D2E/DX2                !
 ! R57   R(29,30)                1.2063         estimate D2E/DX2                !
 ! R58   R(30,31)                1.4367         estimate D2E/DX2                !
 ! R59   R(31,32)                1.3825         estimate D2E/DX2                !
 ! R60   R(31,39)                1.3369         estimate D2E/DX2                !
 ! R61   R(32,33)                1.343          estimate D2E/DX2                !
 ! R62   R(32,65)                1.032          estimate D2E/DX2                !
 ! R63   R(33,34)                1.3581         estimate D2E/DX2                !
 ! R64   R(34,35)                1.3868         estimate D2E/DX2                !
 ! R65   R(34,39)                1.3446         estimate D2E/DX2                !
 ! R66   R(35,36)                1.3787         estimate D2E/DX2                !
 ! R67   R(35,66)                1.032          estimate D2E/DX2                !
 ! R68   R(36,37)                1.3794         estimate D2E/DX2                !
 ! R69   R(36,67)                1.032          estimate D2E/DX2                !
 ! R70   R(37,38)                1.3427         estimate D2E/DX2                !
 ! R71   R(37,68)                1.032          estimate D2E/DX2                !
 ! R72   R(38,39)                1.3403         estimate D2E/DX2                !
 ! A1    A(2,1,40)             109.471          estimate D2E/DX2                !
 ! A2    A(2,1,41)             109.4733         estimate D2E/DX2                !
 ! A3    A(2,1,42)             109.4696         estimate D2E/DX2                !
 ! A4    A(40,1,41)            109.4688         estimate D2E/DX2                !
 ! A5    A(40,1,42)            109.4744         estimate D2E/DX2                !
 ! A6    A(41,1,42)            109.4703         estimate D2E/DX2                !
 ! A7    A(1,2,3)              120.9822         estimate D2E/DX2                !
 ! A8    A(1,2,28)             119.9619         estimate D2E/DX2                !
 ! A9    A(3,2,28)             119.0559         estimate D2E/DX2                !
 ! A10   A(2,3,4)              122.3746         estimate D2E/DX2                !
 ! A11   A(2,3,43)             118.8126         estimate D2E/DX2                !
 ! A12   A(4,3,43)             118.8128         estimate D2E/DX2                !
 ! A13   A(3,4,5)              119.784          estimate D2E/DX2                !
 ! A14   A(3,4,44)             120.1053         estimate D2E/DX2                !
 ! A15   A(5,4,44)             120.1106         estimate D2E/DX2                !
 ! A16   A(4,5,6)              118.5832         estimate D2E/DX2                !
 ! A17   A(4,5,27)             116.9933         estimate D2E/DX2                !
 ! A18   A(6,5,27)             124.4232         estimate D2E/DX2                !
 ! A19   A(5,6,7)              116.8512         estimate D2E/DX2                !
 ! A20   A(5,6,8)              123.4241         estimate D2E/DX2                !
 ! A21   A(7,6,8)              119.7247         estimate D2E/DX2                !
 ! A22   A(6,8,9)              128.4822         estimate D2E/DX2                !
 ! A23   A(6,8,45)             115.7595         estimate D2E/DX2                !
 ! A24   A(9,8,45)             115.7583         estimate D2E/DX2                !
 ! A25   A(8,9,10)             126.1498         estimate D2E/DX2                !
 ! A26   A(8,9,26)             118.7862         estimate D2E/DX2                !
 ! A27   A(10,9,26)            115.0637         estimate D2E/DX2                !
 ! A28   A(9,10,11)            123.5076         estimate D2E/DX2                !
 ! A29   A(9,10,46)            118.2467         estimate D2E/DX2                !
 ! A30   A(11,10,46)           118.2457         estimate D2E/DX2                !
 ! A31   A(10,11,12)           118.5409         estimate D2E/DX2                !
 ! A32   A(10,11,47)           120.7277         estimate D2E/DX2                !
 ! A33   A(12,11,47)           120.7315         estimate D2E/DX2                !
 ! A34   A(11,12,13)           120.0385         estimate D2E/DX2                !
 ! A35   A(11,12,21)           120.5441         estimate D2E/DX2                !
 ! A36   A(13,12,21)           119.4057         estimate D2E/DX2                !
 ! A37   A(12,13,14)           110.1451         estimate D2E/DX2                !
 ! A38   A(12,13,48)           109.3047         estimate D2E/DX2                !
 ! A39   A(12,13,49)           109.0781         estimate D2E/DX2                !
 ! A40   A(14,13,48)           109.3029         estimate D2E/DX2                !
 ! A41   A(14,13,49)           109.0758         estimate D2E/DX2                !
 ! A42   A(48,13,49)           109.923          estimate D2E/DX2                !
 ! A43   A(13,14,15)           110.2694         estimate D2E/DX2                !
 ! A44   A(13,14,20)           109.0474         estimate D2E/DX2                !
 ! A45   A(13,14,50)           107.7191         estimate D2E/DX2                !
 ! A46   A(15,14,20)           104.4246         estimate D2E/DX2                !
 ! A47   A(15,14,50)           112.0946         estimate D2E/DX2                !
 ! A48   A(20,14,50)           113.2529         estimate D2E/DX2                !
 ! A49   A(14,15,16)           112.2921         estimate D2E/DX2                !
 ! A50   A(14,15,51)           108.7582         estimate D2E/DX2                !
 ! A51   A(14,15,52)           107.8192         estimate D2E/DX2                !
 ! A52   A(16,15,51)           108.7628         estimate D2E/DX2                !
 ! A53   A(16,15,52)           107.8199         estimate D2E/DX2                !
 ! A54   A(51,15,52)           111.4166         estimate D2E/DX2                !
 ! A55   A(15,16,17)           105.1635         estimate D2E/DX2                !
 ! A56   A(15,16,53)           110.5385         estimate D2E/DX2                !
 ! A57   A(15,16,54)           111.9667         estimate D2E/DX2                !
 ! A58   A(17,16,53)           110.5378         estimate D2E/DX2                !
 ! A59   A(17,16,54)           111.9663         estimate D2E/DX2                !
 ! A60   A(53,16,54)           106.7373         estimate D2E/DX2                !
 ! A61   A(16,17,18)           112.3905         estimate D2E/DX2                !
 ! A62   A(16,17,19)           112.451          estimate D2E/DX2                !
 ! A63   A(16,17,55)           107.2363         estimate D2E/DX2                !
 ! A64   A(18,17,19)           114.6286         estimate D2E/DX2                !
 ! A65   A(18,17,55)           104.6375         estimate D2E/DX2                !
 ! A66   A(19,17,55)           104.5694         estimate D2E/DX2                !
 ! A67   A(17,18,56)           109.4722         estimate D2E/DX2                !
 ! A68   A(17,18,57)           109.4709         estimate D2E/DX2                !
 ! A69   A(17,18,58)           109.4695         estimate D2E/DX2                !
 ! A70   A(56,18,57)           109.4712         estimate D2E/DX2                !
 ! A71   A(56,18,58)           109.4694         estimate D2E/DX2                !
 ! A72   A(57,18,58)           109.4742         estimate D2E/DX2                !
 ! A73   A(17,19,20)           108.2163         estimate D2E/DX2                !
 ! A74   A(17,19,59)           109.7812         estimate D2E/DX2                !
 ! A75   A(17,19,60)           110.2022         estimate D2E/DX2                !
 ! A76   A(20,19,59)           109.7865         estimate D2E/DX2                !
 ! A77   A(20,19,60)           110.2008         estimate D2E/DX2                !
 ! A78   A(59,19,60)           108.6478         estimate D2E/DX2                !
 ! A79   A(14,20,19)           111.1735         estimate D2E/DX2                !
 ! A80   A(14,20,61)           109.042          estimate D2E/DX2                !
 ! A81   A(14,20,62)           108.4775         estimate D2E/DX2                !
 ! A82   A(19,20,61)           109.0456         estimate D2E/DX2                !
 ! A83   A(19,20,62)           108.4754         estimate D2E/DX2                !
 ! A84   A(61,20,62)           110.628          estimate D2E/DX2                !
 ! A85   A(12,21,22)           120.225          estimate D2E/DX2                !
 ! A86   A(12,21,26)           119.402          estimate D2E/DX2                !
 ! A87   A(22,21,26)           120.373          estimate D2E/DX2                !
 ! A88   A(21,22,23)           108.7725         estimate D2E/DX2                !
 ! A89   A(21,22,24)           111.5021         estimate D2E/DX2                !
 ! A90   A(21,22,25)           111.7195         estimate D2E/DX2                !
 ! A91   A(23,22,24)           104.7444         estimate D2E/DX2                !
 ! A92   A(23,22,25)           107.2227         estimate D2E/DX2                !
 ! A93   A(24,22,25)           112.4822         estimate D2E/DX2                !
 ! A94   A(9,26,21)            122.9418         estimate D2E/DX2                !
 ! A95   A(9,26,63)            118.5287         estimate D2E/DX2                !
 ! A96   A(21,26,63)           118.5295         estimate D2E/DX2                !
 ! A97   A(5,27,28)            123.7048         estimate D2E/DX2                !
 ! A98   A(5,27,64)            118.1488         estimate D2E/DX2                !
 ! A99   A(28,27,64)           118.1464         estimate D2E/DX2                !
 ! A100  A(2,28,27)            118.0873         estimate D2E/DX2                !
 ! A101  A(2,28,29)            122.0718         estimate D2E/DX2                !
 ! A102  A(27,28,29)           119.8408         estimate D2E/DX2                !
 ! A103  A(30,31,32)           123.5909         estimate D2E/DX2                !
 ! A104  A(30,31,39)           130.7051         estimate D2E/DX2                !
 ! A105  A(32,31,39)           105.704          estimate D2E/DX2                !
 ! A106  A(31,32,33)           107.5009         estimate D2E/DX2                !
 ! A107  A(31,32,65)           126.2474         estimate D2E/DX2                !
 ! A108  A(33,32,65)           126.2517         estimate D2E/DX2                !
 ! A109  A(32,33,34)           109.8028         estimate D2E/DX2                !
 ! A110  A(33,34,35)           131.8598         estimate D2E/DX2                !
 ! A111  A(33,34,39)           105.2813         estimate D2E/DX2                !
 ! A112  A(35,34,39)           122.859          estimate D2E/DX2                !
 ! A113  A(34,35,36)           117.2738         estimate D2E/DX2                !
 ! A114  A(34,35,66)           121.3639         estimate D2E/DX2                !
 ! A115  A(36,35,66)           121.3623         estimate D2E/DX2                !
 ! A116  A(35,36,37)           117.586          estimate D2E/DX2                !
 ! A117  A(35,36,67)           121.2046         estimate D2E/DX2                !
 ! A118  A(37,36,67)           121.2094         estimate D2E/DX2                !
 ! A119  A(36,37,38)           123.794          estimate D2E/DX2                !
 ! A120  A(36,37,68)           118.1044         estimate D2E/DX2                !
 ! A121  A(38,37,68)           118.1016         estimate D2E/DX2                !
 ! A122  A(37,38,39)           118.5103         estimate D2E/DX2                !
 ! A123  A(31,39,34)           111.711          estimate D2E/DX2                !
 ! A124  A(31,39,38)           128.312          estimate D2E/DX2                !
 ! A125  A(34,39,38)           119.977          estimate D2E/DX2                !
 ! A126  L(28,29,30,22,-1)     178.9475         estimate D2E/DX2                !
 ! A127  L(29,30,31,23,-1)     178.9631         estimate D2E/DX2                !
 ! A128  L(28,29,30,22,-2)     180.1215         estimate D2E/DX2                !
 ! A129  L(29,30,31,23,-2)     179.9461         estimate D2E/DX2                !
 ! D1    D(40,1,2,3)            -0.0264         estimate D2E/DX2                !
 ! D2    D(40,1,2,28)          179.9994         estimate D2E/DX2                !
 ! D3    D(41,1,2,3)          -120.0245         estimate D2E/DX2                !
 ! D4    D(41,1,2,28)           60.0013         estimate D2E/DX2                !
 ! D5    D(42,1,2,3)           119.9764         estimate D2E/DX2                !
 ! D6    D(42,1,2,28)          -59.9979         estimate D2E/DX2                !
 ! D7    D(1,2,3,4)           -179.97           estimate D2E/DX2                !
 ! D8    D(1,2,3,43)             0.0306         estimate D2E/DX2                !
 ! D9    D(28,2,3,4)             0.0044         estimate D2E/DX2                !
 ! D10   D(28,2,3,43)         -179.995          estimate D2E/DX2                !
 ! D11   D(1,2,28,27)          179.9719         estimate D2E/DX2                !
 ! D12   D(1,2,28,29)           -0.0336         estimate D2E/DX2                !
 ! D13   D(3,2,28,27)           -0.0029         estimate D2E/DX2                !
 ! D14   D(3,2,28,29)          179.9917         estimate D2E/DX2                !
 ! D15   D(2,3,4,5)              0.0047         estimate D2E/DX2                !
 ! D16   D(2,3,4,44)          -179.9978         estimate D2E/DX2                !
 ! D17   D(43,3,4,5)          -179.9959         estimate D2E/DX2                !
 ! D18   D(43,3,4,44)            0.0016         estimate D2E/DX2                !
 ! D19   D(3,4,5,6)           -179.8214         estimate D2E/DX2                !
 ! D20   D(3,4,5,27)            -0.0146         estimate D2E/DX2                !
 ! D21   D(44,4,5,6)             0.181          estimate D2E/DX2                !
 ! D22   D(44,4,5,27)          179.9878         estimate D2E/DX2                !
 ! D23   D(4,5,6,7)             12.8209         estimate D2E/DX2                !
 ! D24   D(4,5,6,8)           -167.16           estimate D2E/DX2                !
 ! D25   D(27,5,6,7)          -166.9704         estimate D2E/DX2                !
 ! D26   D(27,5,6,8)            13.0487         estimate D2E/DX2                !
 ! D27   D(4,5,27,28)            0.0167         estimate D2E/DX2                !
 ! D28   D(4,5,27,64)         -179.9845         estimate D2E/DX2                !
 ! D29   D(6,5,27,28)          179.811          estimate D2E/DX2                !
 ! D30   D(6,5,27,64)           -0.1902         estimate D2E/DX2                !
 ! D31   D(5,6,8,9)           -179.8873         estimate D2E/DX2                !
 ! D32   D(5,6,8,45)             0.1127         estimate D2E/DX2                !
 ! D33   D(7,6,8,9)              0.1323         estimate D2E/DX2                !
 ! D34   D(7,6,8,45)          -179.8677         estimate D2E/DX2                !
 ! D35   D(6,8,9,10)             2.4464         estimate D2E/DX2                !
 ! D36   D(6,8,9,26)          -177.3211         estimate D2E/DX2                !
 ! D37   D(45,8,9,10)         -177.5536         estimate D2E/DX2                !
 ! D38   D(45,8,9,26)            2.6789         estimate D2E/DX2                !
 ! D39   D(8,9,10,11)         -179.7717         estimate D2E/DX2                !
 ! D40   D(8,9,10,46)            0.2283         estimate D2E/DX2                !
 ! D41   D(26,9,10,11)           0.0034         estimate D2E/DX2                !
 ! D42   D(26,9,10,46)        -179.9966         estimate D2E/DX2                !
 ! D43   D(8,9,26,21)          179.8057         estimate D2E/DX2                !
 ! D44   D(8,9,26,63)           -0.1955         estimate D2E/DX2                !
 ! D45   D(10,9,26,21)           0.0129         estimate D2E/DX2                !
 ! D46   D(10,9,26,63)        -179.9882         estimate D2E/DX2                !
 ! D47   D(9,10,11,12)          -0.0351         estimate D2E/DX2                !
 ! D48   D(9,10,11,47)         179.9644         estimate D2E/DX2                !
 ! D49   D(46,10,11,12)        179.9649         estimate D2E/DX2                !
 ! D50   D(46,10,11,47)         -0.0356         estimate D2E/DX2                !
 ! D51   D(10,11,12,13)        178.8011         estimate D2E/DX2                !
 ! D52   D(10,11,12,21)          0.051          estimate D2E/DX2                !
 ! D53   D(47,11,12,13)         -1.1984         estimate D2E/DX2                !
 ! D54   D(47,11,12,21)       -179.9484         estimate D2E/DX2                !
 ! D55   D(11,12,13,14)          3.3347         estimate D2E/DX2                !
 ! D56   D(11,12,13,48)       -116.7699         estimate D2E/DX2                !
 ! D57   D(11,12,13,49)        123.0189         estimate D2E/DX2                !
 ! D58   D(21,12,13,14)       -177.9011         estimate D2E/DX2                !
 ! D59   D(21,12,13,48)         61.9944         estimate D2E/DX2                !
 ! D60   D(21,12,13,49)        -58.2168         estimate D2E/DX2                !
 ! D61   D(11,12,21,22)        179.9597         estimate D2E/DX2                !
 ! D62   D(11,12,21,26)         -0.0361         estimate D2E/DX2                !
 ! D63   D(13,12,21,22)          1.2018         estimate D2E/DX2                !
 ! D64   D(13,12,21,26)       -178.794          estimate D2E/DX2                !
 ! D65   D(12,13,14,15)       -172.9865         estimate D2E/DX2                !
 ! D66   D(12,13,14,20)         72.9071         estimate D2E/DX2                !
 ! D67   D(12,13,14,50)        -50.3755         estimate D2E/DX2                !
 ! D68   D(48,13,14,15)        -52.8809         estimate D2E/DX2                !
 ! D69   D(48,13,14,20)       -166.9873         estimate D2E/DX2                !
 ! D70   D(48,13,14,50)         69.7301         estimate D2E/DX2                !
 ! D71   D(49,13,14,15)         67.3279         estimate D2E/DX2                !
 ! D72   D(49,13,14,20)        -46.7786         estimate D2E/DX2                !
 ! D73   D(49,13,14,50)       -170.0611         estimate D2E/DX2                !
 ! D74   D(13,14,15,16)        -44.6771         estimate D2E/DX2                !
 ! D75   D(13,14,15,51)       -165.099          estimate D2E/DX2                !
 ! D76   D(13,14,15,52)         73.9553         estimate D2E/DX2                !
 ! D77   D(20,14,15,16)         72.3368         estimate D2E/DX2                !
 ! D78   D(20,14,15,51)        -48.0851         estimate D2E/DX2                !
 ! D79   D(20,14,15,52)       -169.0308         estimate D2E/DX2                !
 ! D80   D(50,14,15,16)       -164.6821         estimate D2E/DX2                !
 ! D81   D(50,14,15,51)         74.8961         estimate D2E/DX2                !
 ! D82   D(50,14,15,52)        -46.0496         estimate D2E/DX2                !
 ! D83   D(13,14,20,19)         94.9916         estimate D2E/DX2                !
 ! D84   D(13,14,20,61)       -144.7505         estimate D2E/DX2                !
 ! D85   D(13,14,20,62)        -24.2008         estimate D2E/DX2                !
 ! D86   D(15,14,20,19)        -22.8632         estimate D2E/DX2                !
 ! D87   D(15,14,20,61)         97.3947         estimate D2E/DX2                !
 ! D88   D(15,14,20,62)       -142.0557         estimate D2E/DX2                !
 ! D89   D(50,14,20,19)       -145.0879         estimate D2E/DX2                !
 ! D90   D(50,14,20,61)        -24.8299         estimate D2E/DX2                !
 ! D91   D(50,14,20,62)         95.7197         estimate D2E/DX2                !
 ! D92   D(14,15,16,17)        -48.0828         estimate D2E/DX2                !
 ! D93   D(14,15,16,53)       -167.4028         estimate D2E/DX2                !
 ! D94   D(14,15,16,54)         73.734          estimate D2E/DX2                !
 ! D95   D(51,15,16,17)         72.3364         estimate D2E/DX2                !
 ! D96   D(51,15,16,53)        -46.9836         estimate D2E/DX2                !
 ! D97   D(51,15,16,54)       -165.8468         estimate D2E/DX2                !
 ! D98   D(52,15,16,17)       -166.7149         estimate D2E/DX2                !
 ! D99   D(52,15,16,53)         73.9652         estimate D2E/DX2                !
 ! D100  D(52,15,16,54)        -44.8981         estimate D2E/DX2                !
 ! D101  D(15,16,17,18)       -154.55           estimate D2E/DX2                !
 ! D102  D(15,16,17,19)        -23.4093         estimate D2E/DX2                !
 ! D103  D(15,16,17,55)         90.9953         estimate D2E/DX2                !
 ! D104  D(53,16,17,18)        -35.2296         estimate D2E/DX2                !
 ! D105  D(53,16,17,19)         95.9111         estimate D2E/DX2                !
 ! D106  D(53,16,17,55)       -149.6843         estimate D2E/DX2                !
 ! D107  D(54,16,17,18)         83.6329         estimate D2E/DX2                !
 ! D108  D(54,16,17,19)       -145.2264         estimate D2E/DX2                !
 ! D109  D(54,16,17,55)        -30.8218         estimate D2E/DX2                !
 ! D110  D(16,17,18,56)         63.9732         estimate D2E/DX2                !
 ! D111  D(16,17,18,57)        -56.0271         estimate D2E/DX2                !
 ! D112  D(16,17,18,58)       -176.0295         estimate D2E/DX2                !
 ! D113  D(19,17,18,56)        -66.0601         estimate D2E/DX2                !
 ! D114  D(19,17,18,57)        173.9396         estimate D2E/DX2                !
 ! D115  D(19,17,18,58)         53.9372         estimate D2E/DX2                !
 ! D116  D(55,17,18,56)       -179.998          estimate D2E/DX2                !
 ! D117  D(55,17,18,57)         60.0017         estimate D2E/DX2                !
 ! D118  D(55,17,18,58)        -60.0006         estimate D2E/DX2                !
 ! D119  D(16,17,19,20)         69.4337         estimate D2E/DX2                !
 ! D120  D(16,17,19,59)        -50.3737         estimate D2E/DX2                !
 ! D121  D(16,17,19,60)       -170.0051         estimate D2E/DX2                !
 ! D122  D(18,17,19,20)       -160.5627         estimate D2E/DX2                !
 ! D123  D(18,17,19,59)         79.6299         estimate D2E/DX2                !
 ! D124  D(18,17,19,60)        -40.0015         estimate D2E/DX2                !
 ! D125  D(55,17,19,20)        -46.5849         estimate D2E/DX2                !
 ! D126  D(55,17,19,59)       -166.3923         estimate D2E/DX2                !
 ! D127  D(55,17,19,60)         73.9763         estimate D2E/DX2                !
 ! D128  D(17,19,20,14)        -41.9582         estimate D2E/DX2                !
 ! D129  D(17,19,20,61)       -162.2139         estimate D2E/DX2                !
 ! D130  D(17,19,20,62)         77.2356         estimate D2E/DX2                !
 ! D131  D(59,19,20,14)         77.8459         estimate D2E/DX2                !
 ! D132  D(59,19,20,61)        -42.4099         estimate D2E/DX2                !
 ! D133  D(59,19,20,62)       -162.9604         estimate D2E/DX2                !
 ! D134  D(60,19,20,14)       -162.5203         estimate D2E/DX2                !
 ! D135  D(60,19,20,61)         77.224          estimate D2E/DX2                !
 ! D136  D(60,19,20,62)        -43.3266         estimate D2E/DX2                !
 ! D137  D(12,21,22,23)       -179.8736         estimate D2E/DX2                !
 ! D138  D(12,21,22,24)         65.1139         estimate D2E/DX2                !
 ! D139  D(12,21,22,25)        -61.7085         estimate D2E/DX2                !
 ! D140  D(26,21,22,23)          0.1221         estimate D2E/DX2                !
 ! D141  D(26,21,22,24)       -114.8903         estimate D2E/DX2                !
 ! D142  D(26,21,22,25)        118.2873         estimate D2E/DX2                !
 ! D143  D(12,21,26,9)           0.003          estimate D2E/DX2                !
 ! D144  D(12,21,26,63)       -179.9959         estimate D2E/DX2                !
 ! D145  D(22,21,26,9)        -179.9928         estimate D2E/DX2                !
 ! D146  D(22,21,26,63)          0.0083         estimate D2E/DX2                !
 ! D147  D(5,27,28,2)           -0.008          estimate D2E/DX2                !
 ! D148  D(5,27,28,29)         179.9973         estimate D2E/DX2                !
 ! D149  D(64,27,28,2)         179.9932         estimate D2E/DX2                !
 ! D150  D(64,27,28,29)         -0.0014         estimate D2E/DX2                !
 ! D151  D(2,28,31,32)         173.9961         estimate D2E/DX2                !
 ! D152  D(2,28,31,39)          -5.925          estimate D2E/DX2                !
 ! D153  D(27,28,31,32)         -5.7741         estimate D2E/DX2                !
 ! D154  D(27,28,31,39)        174.3048         estimate D2E/DX2                !
 ! D155  D(30,31,32,33)        179.996          estimate D2E/DX2                !
 ! D156  D(30,31,32,65)         -0.0017         estimate D2E/DX2                !
 ! D157  D(39,31,32,33)         -0.0034         estimate D2E/DX2                !
 ! D158  D(39,31,32,65)        179.9988         estimate D2E/DX2                !
 ! D159  D(30,31,39,34)       -179.9986         estimate D2E/DX2                !
 ! D160  D(30,31,39,38)          0.0183         estimate D2E/DX2                !
 ! D161  D(32,31,39,34)          0.0007         estimate D2E/DX2                !
 ! D162  D(32,31,39,38)       -179.9823         estimate D2E/DX2                !
 ! D163  D(31,32,33,34)          0.0049         estimate D2E/DX2                !
 ! D164  D(65,32,33,34)       -179.9973         estimate D2E/DX2                !
 ! D165  D(32,33,34,35)        179.9972         estimate D2E/DX2                !
 ! D166  D(32,33,34,39)         -0.0044         estimate D2E/DX2                !
 ! D167  D(33,34,35,36)       -179.9892         estimate D2E/DX2                !
 ! D168  D(33,34,35,66)          0.0089         estimate D2E/DX2                !
 ! D169  D(39,34,35,36)          0.0127         estimate D2E/DX2                !
 ! D170  D(39,34,35,66)       -179.9893         estimate D2E/DX2                !
 ! D171  D(33,34,39,31)          0.0022         estimate D2E/DX2                !
 ! D172  D(33,34,39,38)        179.9869         estimate D2E/DX2                !
 ! D173  D(35,34,39,31)       -179.9992         estimate D2E/DX2                !
 ! D174  D(35,34,39,38)         -0.0146         estimate D2E/DX2                !
 ! D175  D(34,35,36,37)         -0.0101         estimate D2E/DX2                !
 ! D176  D(34,35,36,67)        179.9882         estimate D2E/DX2                !
 ! D177  D(66,35,36,37)        179.9919         estimate D2E/DX2                !
 ! D178  D(66,35,36,67)         -0.0099         estimate D2E/DX2                !
 ! D179  D(35,36,37,38)          0.0105         estimate D2E/DX2                !
 ! D180  D(35,36,37,68)       -179.9924         estimate D2E/DX2                !
 ! D181  D(67,36,37,38)       -179.9878         estimate D2E/DX2                !
 ! D182  D(67,36,37,68)          0.0094         estimate D2E/DX2                !
 ! D183  D(36,37,38,39)         -0.0121         estimate D2E/DX2                !
 ! D184  D(68,37,38,39)        179.9908         estimate D2E/DX2                !
 ! D185  D(37,38,39,31)        179.9954         estimate D2E/DX2                !
 ! D186  D(37,38,39,34)          0.0136         estimate D2E/DX2                !
 --------------------------------------------------------------------------------
 Trust Radius=3.00D-01 FncErr=1.00D-07 GrdErr=1.00D-07 EigMax=2.50D+02 EigMin=1.00D-04
 Number of steps in this run=    397 maximum allowed number of steps=    408.
 GradGradGradGradGradGradGradGradGradGradGradGradGradGradGradGradGradGrad

 Stoichiometry    C29H29F3N6O(2+)
 Framework group  C1[X(C29H29F3N6O)]
 Deg. of freedom   198
 Full point group                 C1      NOp   1
 Largest Abelian subgroup         C1      NOp   1
 Largest concise Abelian subgroup C1      NOp   1
                         Standard orientation:                         
 ---------------------------------------------------------------------
 Center     Atomic      Atomic             Coordinates (Angstroms)
 Number     Number       Type             X           Y           Z
 ---------------------------------------------------------------------
      1          6           0       -5.904121    3.484712   -0.072676
      2          6           0       -4.422902    3.199075   -0.090786
      3          6           0       -3.506618    4.220252   -0.157280
      4          6           0       -2.148729    3.992404   -0.176060
      5          6           0       -1.668063    2.693993   -0.127023
      6          6           0       -0.229540    2.483666   -0.144355
      7          8           0        0.492114    3.490569    0.045706
      8          7           0        0.367189    1.229038   -0.360517
      9          6           0        1.731755    0.906110   -0.396856
     10          6           0        2.776423    1.772438   -0.176222
     11          6           0        4.115981    1.392035   -0.230784
     12          6           0        4.413256    0.091363   -0.517378
     13          6           0        5.853493   -0.351606   -0.611751
     14          7           0        6.738460    0.751859   -0.284670
     15          6           0        8.129878    0.376847   -0.535034
     16          6           0        8.454816   -1.006262   -0.012317
     17          7           0        7.932676   -1.032864    1.340785
     18          6           0        8.621802   -1.983290    2.176490
     19          6           0        7.808635    0.271690    1.902240
     20          6           0        6.680592    1.001476    1.171380
     21          6           0        3.407874   -0.822312   -0.748145
     22          6           0        3.739948   -2.237872   -1.060773
     23          9           0        2.553041   -2.945728   -1.252237
     24          9           0        4.360452   -2.869634    0.021116
     25          9           0        4.462588   -2.343974   -2.210128
     26          6           0        2.106406   -0.416098   -0.687179
     27          6           0       -2.600842    1.684924   -0.060509
     28          6           0       -3.974277    1.903526   -0.040999
     29          6           0       -4.875367    0.786071    0.029762
     30          6           0       -5.614717   -0.165477    0.084334
     31          6           0       -6.474787   -1.314618    0.146784
     32          6           0       -6.017280   -2.617282    0.074693
     33          7           0       -7.085606   -3.426118    0.164918
     34          6           0       -8.215516   -2.683454    0.292652
     35          6           0       -9.549300   -3.041931    0.418414
     36          6           0      -10.469852   -2.021682    0.530658
     37          6           0       -9.994275   -0.727015    0.509456
     38          7           0       -8.695247   -0.410510    0.386321
     39          7           0       -7.802265   -1.404026    0.277392
     40          1           0       -6.064096    4.541738   -0.117621
     41          1           0       -6.331099    3.097407    0.828799
     42          1           0       -6.367760    3.017561   -0.916324
     43          1           0       -3.848233    5.193396   -0.194498
     44          1           0       -1.491293    4.786282   -0.226538
     45          1           0       -0.253942    0.479082   -0.505312
     46          1           0        2.556789    2.757030    0.041423
     47          1           0        4.866623    2.078876   -0.058253
     48          1           0        6.056622   -0.684536   -1.608166
     49          1           0        6.019828   -1.150324    0.080583
     50          1           0        6.451447    1.555905   -0.842783
     51          1           0        8.769543    1.086134   -0.052673
     52          1           0        8.281838    0.370673   -1.594162
     53          1           0        9.512561   -1.167677   -0.009750
     54          1           0        8.027276   -1.775013   -0.621486
     55          1           0        6.975656   -1.381815    1.288637
     56          1           0        9.644647   -1.688041    2.283878
     57          1           0        8.575842   -2.953034    1.726548
     58          1           0        8.156600   -2.014487    3.139604
     59          1           0        8.726420    0.807750    1.778950
     60          1           0        7.589207    0.204833    2.947363
     61          1           0        6.771961    2.052621    1.349272
     62          1           0        5.745208    0.636502    1.541093
     63          1           0        1.364274   -1.111551   -0.862212
     64          1           0       -2.262384    0.710778   -0.022991
     65          1           0       -5.034305   -2.913920   -0.029405
     66          1           0       -9.840870   -4.031841    0.427577
     67          1           0      -11.478111   -2.219479    0.627012
     68          1           0      -10.676379    0.042887    0.593029
 ---------------------------------------------------------------------
 Rotational constants (GHZ):           0.1751743           0.0263887           0.0237245
 Standard basis: 6-31G(d) (6D, 7F)
 There are   643 symmetry adapted cartesian basis functions of A   symmetry.
 There are   643 symmetry adapted basis functions of A   symmetry.
   643 basis functions,  1208 primitive gaussians,   643 cartesian basis functions
   139 alpha electrons      139 beta electrons
       nuclear repulsion energy      3982.3330562667 Hartrees.
 NAtoms=   68 NActive=   68 NUniq=   68 SFac= 1.00D+00 NAtFMM=   60 NAOKFM=T Big=T
 Integral buffers will be    131072 words long.
 Raffenetti 1 integral format.
 Two-electron integral symmetry is turned on.
 One-electron integrals computed using PRISM.
 NBasis=   643 RedAO= T EigKep=  5.67D-05  NBF=   643
 NBsUse=   643 1.00D-06 EigRej= -1.00D+00 NBFU=   643
 ExpMin= 1.61D-01 ExpMax= 7.00D+03 ExpMxC= 1.05D+03 IAcc=3 IRadAn=         5 AccDes= 0.00D+00
 Harris functional with IExCor=  205 and IRadAn=       5 diagonalized for initial guess.
 HarFok:  IExCor=  205 AccDes= 0.00D+00 IRadAn=         5 IDoV= 1 UseB2=F ITyADJ=14
 ICtDFT=  3500011 ScaDFX=  1.000000  1.000000  1.000000  1.000000
 FoFCou: FMM=F IPFlag=           0 FMFlag=      100000 FMFlg1=        2001
         NFxFlg=           0 DoJE=T BraDBF=F KetDBF=T FulRan=T
         wScrn=  0.000000 ICntrl=       500 IOpCl=  0 I1Cent=   200000004 NGrid=           0
         NMat0=    1 NMatS0=      1 NMatT0=    0 NMatD0=    1 NMtDS0=    0 NMtDT0=    0
 Petite list used in FoFCou.
 Requested convergence on RMS density matrix=1.00D-08 within 128 cycles.
 Requested convergence on MAX density matrix=1.00D-06.
 Requested convergence on             energy=1.00D-06.
 No special actions if energy rises.
 Integral accuracy reduced to 1.0D-05 until final iterations.
 Initial convergence to 1.0D-05 achieved.  Increase integral accuracy.
 SCF Done:  E(RHF) =  -1814.21900320     A.U. after   18 cycles
            NFock= 18  Conv=0.33D-08     -V/T= 2.0006

 **********************************************************************

            Population analysis using the SCF density.

 **********************************************************************

 Orbital symmetries:
       Occupied  (A) (A) (A) (A) (A) (A) (A) (A) (A) (A) (A) (A)
                 (A) (A) (A) (A) (A) (A) (A) (A) (A) (A) (A) (A)
                 (A) (A) (A) (A) (A) (A) (A) (A) (A) (A) (A) (A)
                 (A) (A) (A) (A) (A) (A) (A) (A) (A) (A) (A) (A)
                 (A) (A) (A) (A) (A) (A) (A) (A) (A) (A) (A) (A)
                 (A) (A) (A) (A) (A) (A) (A) (A) (A) (A) (A) (A)
                 (A) (A) (A) (A) (A) (A) (A) (A) (A) (A) (A) (A)
                 (A) (A) (A) (A) (A) (A) (A) (A) (A) (A) (A) (A)
                 (A) (A) (A) (A) (A) (A) (A) (A) (A) (A) (A) (A)
                 (A) (A) (A) (A) (A) (A) (A) (A) (A) (A) (A) (A)
                 (A) (A) (A) (A) (A) (A) (A) (A) (A) (A) (A) (A)
                 (A) (A) (A) (A) (A) (A) (A)
       Virtual   (A) (A) (A) (A) (A) (A) (A) (A) (A) (A) (A) (A)
                 (A) (A) (A) (A) (A) (A) (A) (A) (A) (A) (A) (A)
                 (A) (A) (A) (A) (A) (A) (A) (A) (A) (A) (A) (A)
                 (A) (A) (A) (A) (A) (A) (A) (A) (A) (A) (A) (A)
                 (A) (A) (A) (A) (A) (A) (A) (A) (A) (A) (A) (A)
                 (A) (A) (A) (A) (A) (A) (A) (A) (A) (A) (A) (A)
                 (A) (A) (A) (A) (A) (A) (A) (A) (A) (A) (A) (A)
                 (A) (A) (A) (A) (A) (A) (A) (A) (A) (A) (A) (A)
                 (A) (A) (A) (A) (A) (A) (A) (A) (A) (A) (A) (A)
                 (A) (A) (A) (A) (A) (A) (A) (A) (A) (A) (A) (A)
                 (A) (A) (A) (A) (A) (A) (A) (A) (A) (A) (A) (A)
                 (A) (A) (A) (A) (A) (A) (A) (A) (A) (A) (A) (A)
                 (A) (A) (A) (A) (A) (A) (A) (A) (A) (A) (A) (A)
                 (A) (A) (A) (A) (A) (A) (A) (A) (A) (A) (A) (A)
                 (A) (A) (A) (A) (A) (A) (A) (A) (A) (A) (A) (A)
                 (A) (A) (A) (A) (A) (A) (A) (A) (A) (A) (A) (A)
                 (A) (A) (A) (A) (A) (A) (A) (A) (A) (A) (A) (A)
                 (A) (A) (A) (A) (A) (A) (A) (A) (A) (A) (A) (A)
                 (A) (A) (A) (A) (A) (A) (A) (A) (A) (A) (A) (A)
                 (A) (A) (A) (A) (A) (A) (A) (A) (A) (A) (A) (A)
                 (A) (A) (A) (A) (A) (A) (A) (A) (A) (A) (A) (A)
                 (A) (A) (A) (A) (A) (A) (A) (A) (A) (A) (A) (A)
                 (A) (A) (A) (A) (A) (A) (A) (A) (A) (A) (A) (A)
                 (A) (A) (A) (A) (A) (A) (A) (A) (A) (A) (A) (A)
                 (A) (A) (A) (A) (A) (A) (A) (A) (A) (A) (A) (A)
                 (A) (A) (A) (A) (A) (A) (A) (A) (A) (A) (A) (A)
                 (A) (A) (A) (A) (A) (A) (A) (A) (A) (A) (A) (A)
                 (A) (A) (A) (A) (A) (A) (A) (A) (A) (A) (A) (A)
                 (A) (A) (A) (A) (A) (A) (A) (A) (A) (A) (A) (A)
                 (A) (A) (A) (A) (A) (A) (A) (A) (A) (A) (A) (A)
                 (A) (A) (A) (A) (A) (A) (A) (A) (A) (A) (A) (A)
                 (A) (A) (A) (A) (A) (A) (A) (A) (A) (A) (A) (A)
                 (A) (A) (A) (A) (A) (A) (A) (A) (A) (A) (A) (A)
                 (A) (A) (A) (A) (A) (A) (A) (A) (A) (A) (A) (A)
                 (A) (A) (A) (A) (A) (A) (A) (A) (A) (A) (A) (A)
                 (A) (A) (A) (A) (A) (A) (A) (A) (A) (A) (A) (A)
                 (A) (A) (A) (A) (A) (A) (A) (A) (A) (A) (A) (A)
                 (A) (A) (A) (A) (A) (A) (A) (A) (A) (A) (A) (A)
                 (A) (A) (A) (A) (A) (A) (A) (A) (A) (A) (A) (A)
                 (A) (A) (A) (A) (A) (A) (A) (A) (A) (A) (A) (A)
                 (A) (A) (A) (A) (A) (A) (A) (A) (A) (A) (A) (A)
                 (A) (A) (A) (A) (A) (A) (A) (A) (A) (A) (A) (A)
 The electronic state is 1-A.
 Alpha  occ. eigenvalues --  -26.56281 -26.55723 -26.52697 -20.68243 -16.01449
 Alpha  occ. eigenvalues --  -16.01159 -15.78728 -15.78538 -15.71818 -15.63499
 Alpha  occ. eigenvalues --  -11.73283 -11.60491 -11.60257 -11.60112 -11.59992
 Alpha  occ. eigenvalues --  -11.57914 -11.56336 -11.52384 -11.50521 -11.49351
 Alpha  occ. eigenvalues --  -11.48276 -11.47569 -11.45882 -11.44032 -11.39858
 Alpha  occ. eigenvalues --  -11.38175 -11.37583 -11.37395 -11.37364 -11.37197
 Alpha  occ. eigenvalues --  -11.36688 -11.36153 -11.35871 -11.35513 -11.35023
 Alpha  occ. eigenvalues --  -11.34351 -11.34071 -11.33854 -11.31718  -1.90861
 Alpha  occ. eigenvalues --   -1.83840  -1.80660  -1.71787  -1.66147  -1.52784
 Alpha  occ. eigenvalues --   -1.52074  -1.44132  -1.41241  -1.40658  -1.37447
 Alpha  occ. eigenvalues --   -1.35651  -1.31725  -1.30579  -1.29104  -1.26103
 Alpha  occ. eigenvalues --   -1.25570  -1.24958  -1.22572  -1.20114  -1.18637
 Alpha  occ. eigenvalues --   -1.18291  -1.17629  -1.16861  -1.14987  -1.10775
 Alpha  occ. eigenvalues --   -1.10055  -1.09526  -1.08713  -1.07116  -1.05096
 Alpha  occ. eigenvalues --   -1.04322  -1.02025  -1.01750  -1.01490  -1.00635
 Alpha  occ. eigenvalues --   -1.00120  -0.99553  -0.98507  -0.97420  -0.96456
 Alpha  occ. eigenvalues --   -0.95881  -0.94213  -0.93831  -0.93762  -0.93284
 Alpha  occ. eigenvalues --   -0.92136  -0.90953  -0.90336  -0.90153  -0.89472
 Alpha  occ. eigenvalues --   -0.88281  -0.87612  -0.87052  -0.86762  -0.86589
 Alpha  occ. eigenvalues --   -0.85779  -0.84975  -0.84645  -0.84055  -0.83933
 Alpha  occ. eigenvalues --   -0.83638  -0.83397  -0.82797  -0.81891  -0.79769
 Alpha  occ. eigenvalues --   -0.79163  -0.78898  -0.78464  -0.77357  -0.76255
 Alpha  occ. eigenvalues --   -0.75899  -0.75881  -0.74633  -0.73390  -0.73017
 Alpha  occ. eigenvalues --   -0.72281  -0.71642  -0.71533  -0.69697  -0.69395
 Alpha  occ. eigenvalues --   -0.66207  -0.65965  -0.64228  -0.62621  -0.62053
 Alpha  occ. eigenvalues --   -0.61333  -0.59464  -0.58213  -0.57724  -0.56879
 Alpha  occ. eigenvalues --   -0.55680  -0.53124  -0.51886  -0.51198  -0.48610
 Alpha  occ. eigenvalues --   -0.46353  -0.45647  -0.43553  -0.36762
 Alpha virt. eigenvalues --   -0.12632  -0.11100  -0.10049  -0.08678  -0.06286
 Alpha virt. eigenvalues --   -0.04864  -0.04214  -0.03215  -0.02614  -0.02231
 Alpha virt. eigenvalues --   -0.01709  -0.00820  -0.00390   0.00473   0.01120
 Alpha virt. eigenvalues --    0.02686   0.02957   0.03485   0.04008   0.04587
 Alpha virt. eigenvalues --    0.05209   0.05724   0.05866   0.06418   0.08293
 Alpha virt. eigenvalues --    0.09245   0.09585   0.09868   0.10156   0.10985
 Alpha virt. eigenvalues --    0.12034   0.12471   0.13204   0.14109   0.14867
 Alpha virt. eigenvalues --    0.15550   0.15932   0.16526   0.16749   0.17571
 Alpha virt. eigenvalues --    0.18367   0.18637   0.19702   0.20213   0.21372
 Alpha virt. eigenvalues --    0.21761   0.22254   0.22703   0.23663   0.23801
 Alpha virt. eigenvalues --    0.23878   0.23940   0.23942   0.25692   0.26251
 Alpha virt. eigenvalues --    0.28489   0.28764   0.29090   0.30368   0.30996
 Alpha virt. eigenvalues --    0.31374   0.32233   0.32445   0.33407   0.34707
 Alpha virt. eigenvalues --    0.36104   0.37193   0.38203   0.39541   0.39941
 Alpha virt. eigenvalues --    0.40028   0.40254   0.40945   0.41447   0.41737
 Alpha virt. eigenvalues --    0.43108   0.43228   0.44524   0.44673   0.45134
 Alpha virt. eigenvalues --    0.45204   0.47077   0.47353   0.48253   0.50236
 Alpha virt. eigenvalues --    0.50322   0.51483   0.52966   0.53848   0.54149
 Alpha virt. eigenvalues --    0.54683   0.54930   0.55802   0.56259   0.56400
 Alpha virt. eigenvalues --    0.57604   0.57958   0.58081   0.59024   0.59480
 Alpha virt. eigenvalues --    0.59797   0.60825   0.61264   0.61379   0.61705
 Alpha virt. eigenvalues --    0.62102   0.62617   0.63357   0.63698   0.64166
 Alpha virt. eigenvalues --    0.64499   0.64833   0.65088   0.65287   0.65714
 Alpha virt. eigenvalues --    0.66291   0.66522   0.66677   0.67401   0.68212
 Alpha virt. eigenvalues --    0.68673   0.69443   0.70192   0.71091   0.71209
 Alpha virt. eigenvalues --    0.72074   0.72158   0.72343   0.72767   0.73023
 Alpha virt. eigenvalues --    0.73824   0.74025   0.74496   0.75834   0.76470
 Alpha virt. eigenvalues --    0.76825   0.77067   0.77780   0.78076   0.78132
 Alpha virt. eigenvalues --    0.79258   0.79383   0.79662   0.80304   0.81253
 Alpha virt. eigenvalues --    0.81721   0.81982   0.82803   0.83223   0.83791
 Alpha virt. eigenvalues --    0.84242   0.84489   0.85055   0.85605   0.87265
 Alpha virt. eigenvalues --    0.87453   0.87509   0.88329   0.88447   0.88988
 Alpha virt. eigenvalues --    0.89567   0.90123   0.90526   0.90892   0.91180
 Alpha virt. eigenvalues --    0.91577   0.91843   0.92102   0.92586   0.92986
 Alpha virt. eigenvalues --    0.93459   0.93696   0.94227   0.94515   0.95451
 Alpha virt. eigenvalues --    0.95693   0.96250   0.96861   0.97154   0.97974
 Alpha virt. eigenvalues --    0.98469   1.00251   1.00600   1.01553   1.01714
 Alpha virt. eigenvalues --    1.02034   1.02239   1.02710   1.02792   1.03866
 Alpha virt. eigenvalues --    1.05368   1.06222   1.06682   1.07410   1.08487
 Alpha virt. eigenvalues --    1.08763   1.08978   1.09115   1.09771   1.10271
 Alpha virt. eigenvalues --    1.10998   1.11837   1.12726   1.13141   1.13165
 Alpha virt. eigenvalues --    1.13936   1.14666   1.16291   1.16675   1.17092
 Alpha virt. eigenvalues --    1.17729   1.18600   1.19014   1.19375   1.20318
 Alpha virt. eigenvalues --    1.20730   1.21940   1.23402   1.23844   1.24661
 Alpha virt. eigenvalues --    1.25071   1.25886   1.26846   1.27315   1.28259
 Alpha virt. eigenvalues --    1.28653   1.30125   1.30223   1.31081   1.32243
 Alpha virt. eigenvalues --    1.32292   1.34035   1.34928   1.35310   1.35758
 Alpha virt. eigenvalues --    1.37290   1.37577   1.37797   1.38335   1.39399
 Alpha virt. eigenvalues --    1.40138   1.40732   1.41573   1.42090   1.43414
 Alpha virt. eigenvalues --    1.44472   1.45456   1.46637   1.47270   1.47507
 Alpha virt. eigenvalues --    1.49392   1.49693   1.49921   1.50957   1.52326
 Alpha virt. eigenvalues --    1.53177   1.53652   1.53898   1.54981   1.55391
 Alpha virt. eigenvalues --    1.55550   1.55760   1.56621   1.58303   1.58864
 Alpha virt. eigenvalues --    1.59422   1.59909   1.60799   1.61892   1.62237
 Alpha virt. eigenvalues --    1.62392   1.63881   1.64251   1.64906   1.66247
 Alpha virt. eigenvalues --    1.66780   1.66992   1.68561   1.69873   1.71026
 Alpha virt. eigenvalues --    1.71154   1.71431   1.72204   1.72736   1.74623
 Alpha virt. eigenvalues --    1.75120   1.76492   1.77430   1.78775   1.80024
 Alpha virt. eigenvalues --    1.80888   1.81580   1.83075   1.84027   1.85566
 Alpha virt. eigenvalues --    1.86507   1.86613   1.88303   1.88624   1.89873
 Alpha virt. eigenvalues --    1.90459   1.91314   1.91623   1.91890   1.92224
 Alpha virt. eigenvalues --    1.93156   1.93667   1.94573   1.94627   1.95616
 Alpha virt. eigenvalues --    1.97323   1.97709   1.97967   1.99748   2.00020
 Alpha virt. eigenvalues --    2.00458   2.01112   2.01729   2.02851   2.03719
 Alpha virt. eigenvalues --    2.04026   2.05086   2.05716   2.05849   2.06228
 Alpha virt. eigenvalues --    2.06960   2.07905   2.08799   2.08899   2.10126
 Alpha virt. eigenvalues --    2.10934   2.11416   2.12072   2.12212   2.13090
 Alpha virt. eigenvalues --    2.13683   2.14064   2.15253   2.15660   2.15853
 Alpha virt. eigenvalues --    2.16451   2.16961   2.18010   2.18443   2.18877
 Alpha virt. eigenvalues --    2.19568   2.19888   2.20013   2.21093   2.21591
 Alpha virt. eigenvalues --    2.22953   2.23704   2.24789   2.25211   2.25817
 Alpha virt. eigenvalues --    2.26975   2.27346   2.27743   2.28346   2.28589
 Alpha virt. eigenvalues --    2.29098   2.29892   2.30803   2.31415   2.32111
 Alpha virt. eigenvalues --    2.33197   2.33894   2.34083   2.35357   2.37543
 Alpha virt. eigenvalues --    2.39104   2.39365   2.40294   2.40320   2.40967
 Alpha virt. eigenvalues --    2.42792   2.43212   2.43530   2.44593   2.45123
 Alpha virt. eigenvalues --    2.45359   2.46468   2.46882   2.47620   2.48911
 Alpha virt. eigenvalues --    2.49428   2.50177   2.50682   2.51243   2.52289
 Alpha virt. eigenvalues --    2.52559   2.53057   2.53259   2.53721   2.54222
 Alpha virt. eigenvalues --    2.54985   2.57889   2.58694   2.60130   2.60408
 Alpha virt. eigenvalues --    2.60434   2.60970   2.61686   2.63794   2.66139
 Alpha virt. eigenvalues --    2.66887   2.67998   2.69178   2.69725   2.70857
 Alpha virt. eigenvalues --    2.71675   2.73516   2.74618   2.76541   2.78458
 Alpha virt. eigenvalues --    2.79238   2.79801   2.80344   2.80993   2.81485
 Alpha virt. eigenvalues --    2.82270   2.83050   2.84323   2.86756   2.87639
 Alpha virt. eigenvalues --    2.88469   2.89154   2.89358   2.90710   2.91187
 Alpha virt. eigenvalues --    2.91887   2.93065   2.93826   2.94537   2.96290
 Alpha virt. eigenvalues --    2.96802   2.99800   3.02546   3.04222   3.06557
 Alpha virt. eigenvalues --    3.07867   3.09002   3.11047   3.12696   3.13591
 Alpha virt. eigenvalues --    3.14199   3.16503   3.18230   3.19434   3.20814
 Alpha virt. eigenvalues --    3.21400   3.21752   3.26558   3.28005   3.31456
 Alpha virt. eigenvalues --    3.36779   3.39096   3.41655   3.49646   3.54401
 Alpha virt. eigenvalues --    3.60310   3.66953   3.75332   3.81241   3.92597
 Alpha virt. eigenvalues --    4.16502   4.18056   4.30166   4.31792   4.33593
 Alpha virt. eigenvalues --    4.35440   4.36599   4.39029   4.40512   4.41133
 Alpha virt. eigenvalues --    4.42036   4.43272   4.45134   4.45902   4.46773
 Alpha virt. eigenvalues --    4.47887   4.49347   4.50447   4.52809   4.53101
 Alpha virt. eigenvalues --    4.55572   4.58768   4.59696   4.61984   4.62815
 Alpha virt. eigenvalues --    4.64568   4.65670   4.70167   4.74142   4.77773
 Alpha virt. eigenvalues --    4.77940   4.80264   4.90448   4.96784   5.01657
 Alpha virt. eigenvalues --    5.07022   5.17001   5.43245   5.84815
          Condensed to atoms (all electrons):
 Mulliken charges:
               1
     1  C   -0.487147
     2  C    0.077725
     3  C   -0.246179
     4  C   -0.144206
     5  C   -0.128388
     6  C    0.852664
     7  O   -0.640517
     8  N   -0.985088
     9  C    0.429470
    10  C   -0.211493
    11  C   -0.222619
    12  C   -0.029761
    13  C   -0.228608
    14  N   -0.685986
    15  C   -0.228231
    16  C   -0.218349
    17  N   -0.662262
    18  C   -0.386872
    19  C   -0.237440
    20  C   -0.236627
    21  C   -0.183149
    22  C    1.240721
    23  F   -0.381069
    24  F   -0.402835
    25  F   -0.366587
    26  C   -0.232575
    27  C   -0.164285
    28  C    0.039252
    29  C   -0.263002
    30  C    0.074892
    31  C    0.229619
    32  C    0.018968
    33  N   -0.603174
    34  C    0.577121
    35  C   -0.172155
    36  C   -0.243469
    37  C    0.057047
    38  N   -0.274836
    39  N   -0.509419
    40  H    0.186502
    41  H    0.210953
    42  H    0.209742
    43  H    0.227201
    44  H    0.257040
    45  H    0.425922
    46  H    0.317180
    47  H    0.187584
    48  H    0.299134
    49  H    0.196394
    50  H    0.500941
    51  H    0.280214
    52  H    0.309803
    53  H    0.314509
    54  H    0.300020
    55  H    0.476868
    56  H    0.269368
    57  H    0.276116
    58  H    0.271005
    59  H    0.280723
    60  H    0.314250
    61  H    0.307846
    62  H    0.299703
    63  H    0.279430
    64  H    0.197978
    65  H    0.218636
    66  H    0.269464
    67  H    0.247218
    68  H    0.247105
 Sum of Mulliken charges =   2.00000
 Mulliken charges with hydrogens summed into heavy atoms:
               1
     1  C    0.120051
     2  C    0.077725
     3  C   -0.018979
     4  C    0.112833
     5  C   -0.128388
     6  C    0.852664
     7  O   -0.640517
     8  N   -0.559166
     9  C    0.429470
    10  C    0.105686
    11  C   -0.035036
    12  C   -0.029761
    13  C    0.266920
    14  N   -0.185045
    15  C    0.361786
    16  C    0.396180
    17  N   -0.185394
    18  C    0.429618
    19  C    0.357533
    20  C    0.370922
    21  C   -0.183149
    22  C    1.240721
    23  F   -0.381069
    24  F   -0.402835
    25  F   -0.366587
    26  C    0.046855
    27  C    0.033693
    28  C    0.039252
    29  C   -0.263002
    30  C    0.074892
    31  C    0.229619
    32  C    0.237604
    33  N   -0.603174
    34  C    0.577121
    35  C    0.097309
    36  C    0.003749
    37  C    0.304152
    38  N   -0.274836
    39  N   -0.509419
 Electronic spatial extent (au):  <R**2>=          41519.8886
 Charge=              2.0000 electrons
 Dipole moment (field-independent basis, Debye):
    X=             55.1842    Y=             -0.6302    Z=              5.4017  Tot=             55.4515
 Quadrupole moment (field-independent basis, Debye-Ang):
   XX=            393.6549   YY=           -205.0011   ZZ=           -204.9346
   XY=            -20.0713   XZ=             42.3406   YZ=             -9.7049
 Traceless Quadrupole moment (field-independent basis, Debye-Ang):
   XX=            399.0818   YY=           -199.5742   ZZ=           -199.5077
   XY=            -20.0713   XZ=             42.3406   YZ=             -9.7049
 Octapole moment (field-independent basis, Debye-Ang**2):
  XXX=           2947.8604  YYY=             17.6573  ZZZ=             30.4380  XYY=            123.3900
  XXY=           -303.0460  XXZ=            466.5269  XZZ=            254.8930  YZZ=            -34.4006
  YYZ=             12.1429  XYZ=            -45.1275
 Hexadecapole moment (field-independent basis, Debye-Ang**3):
 XXXX=            712.4952 YYYY=          -6173.4047 ZZZZ=           -937.1212 XXXY=            -85.9354
 XXXZ=           2350.6197 YYYX=           -790.3578 YYYZ=            -23.9481 ZZZX=            347.5228
 ZZZY=             14.4472 XXYY=          -7278.0144 XXZZ=          -6973.8728 YYZZ=          -1230.6351
 XXYZ=           -652.2297 YYXZ=            140.8714 ZZXY=           -213.7069
 N-N= 3.982333056267D+03 E-N=-1.216138075542D+04  KE= 1.813147039688D+03
 Calling FoFJK, ICntrl=      2127 FMM=T ISym2X=0 I1Cent= 0 IOpClX= 0 NMat=1 NMatS=1 NMatT=0.
 ***** Axes restored to original set *****
 -------------------------------------------------------------------
 Center     Atomic                   Forces (Hartrees/Bohr)
 Number     Number              X              Y              Z
 -------------------------------------------------------------------
      1        6          -0.017286720   -0.003700560   -0.000026890
      2        6           0.025391456   -0.007557077    0.002935647
      3        6          -0.022663354    0.016167711   -0.004412879
      4        6           0.018708122    0.014569188   -0.001201264
      5        6           0.020741624    0.009892327   -0.006276789
      6        6          -0.075089840   -0.067506043    0.030517330
      7        8           0.027325225    0.066390956   -0.030536226
      8        7          -0.000380147   -0.016991949    0.009768622
      9        6           0.004063780    0.006988772   -0.004770275
     10        6          -0.011301557   -0.007280512    0.003591285
     11        6           0.051482892    0.027901675   -0.016688313
     12        6          -0.027702578   -0.000570818   -0.002209661
     13        6           0.039780503    0.002982624   -0.018007246
     14        7          -0.016421976    0.011618189    0.011219675
     15        6          -0.024384716   -0.010448613   -0.042439916
     16        6           0.001096098   -0.022537035   -0.017095585
     17        7           0.030896506    0.045523835   -0.005043638
     18        6          -0.022105749    0.025281985    0.017477888
     19        6           0.004541268   -0.039837370    0.018127303
     20        6           0.001528164   -0.002534165    0.029357962
     21        6           0.001647259   -0.002968492    0.003880513
     22        6           0.051487810    0.057161762   -0.017602395
     23        9          -0.063393138   -0.027077492    0.010470377
     24        9           0.011482137   -0.038398377   -0.047110971
     25        9           0.010439934    0.019091812    0.047318395
     26        6           0.001759513   -0.014412373    0.008172005
     27        6           0.008465632   -0.008821076   -0.000144466
     28        6          -0.017517212    0.019618270   -0.004414139
     29        6           0.016461352    0.027651506   -0.005202153
     30        6           0.005024289   -0.023851929    0.007130912
     31        6          -0.053585737   -0.013494527   -0.003529921
     32        6           0.088446788   -0.006442773    0.013746779
     33        7           0.009454142    0.027888452   -0.006188932
     34        6          -0.100112687    0.024765347   -0.020233456
     35        6           0.026534996   -0.044588319    0.015635390
     36        6          -0.046795200    0.038633509   -0.016735776
     37        6          -0.089842147   -0.008914598   -0.009729910
     38        7           0.039961279   -0.009219749    0.007921847
     39        7           0.080297192   -0.035039927    0.020247488
     40        1           0.005504898   -0.008073219    0.001907959
     41        1           0.007338592    0.005675668    0.005670985
     42        1           0.007925786    0.003121904   -0.006759074
     43        1           0.013025464   -0.033456373    0.007296715
     44        1          -0.020902860   -0.026976349    0.004530515
     45        1           0.005056911    0.009194673   -0.005971563
     46        1           0.009167873   -0.029657192    0.014743528
     47        1          -0.012140686   -0.029244964    0.014396969
     48        1          -0.006595172    0.001799111   -0.007169996
     49        1           0.004146352   -0.000033441   -0.008855447
     50        1          -0.009831777    0.005225019    0.005135679
     51        1          -0.001939052   -0.012528691   -0.010081307
     52        1          -0.006134650   -0.007985753   -0.006696302
     53        1          -0.008798735   -0.003304255    0.003078605
     54        1           0.004120304    0.008834103   -0.000086113
     55        1          -0.016371342    0.003097586    0.004812289
     56        1          -0.007865648   -0.001932237    0.002048587
     57        1           0.000014610    0.005995752   -0.005235977
     58        1           0.002743827    0.003405270    0.006163256
     59        1          -0.008997618    0.003853558    0.008981118
     60        1           0.003893127    0.001424287    0.006742238
     61        1           0.002736025   -0.006226646    0.005771487
     62        1           0.007612176   -0.004793465    0.003280681
     63        1           0.024054809    0.023045519   -0.011654178
     64        1          -0.008775199    0.037077345   -0.006812575
     65        1          -0.029427677    0.013073918   -0.007567671
     66        1           0.002907408    0.034019030   -0.008834260
     67        1           0.034239964    0.008319108    0.002358556
     68        1           0.014857088   -0.032883412    0.010886679
 -------------------------------------------------------------------
 Cartesian Forces:  Max     0.100112687 RMS     0.024444345

 GradGradGradGradGradGradGradGradGradGradGradGradGradGradGradGradGradGrad
 Berny optimization.
 FormGI is forming the generalized inverse of G from B-inverse, IUseBI=4.
 Internal  Forces:  Max     0.076161973 RMS     0.014960836
 Search for a local minimum.
 Step number   1 out of a maximum of  397
 All quantities printed in internal units (Hartrees-Bohrs-Radians)
 Mixed Optimization -- RFO/linear search
 Second derivative matrix not updated -- first step.
 ITU=  0
     Eigenvalues ---    0.00230   0.00606   0.00637   0.00652   0.00788
     Eigenvalues ---    0.00935   0.00977   0.01006   0.01149   0.01375
     Eigenvalues ---    0.01473   0.01497   0.01569   0.01612   0.01633
     Eigenvalues ---    0.01635   0.01656   0.01713   0.01728   0.01835
     Eigenvalues ---    0.02036   0.02046   0.02152   0.02211   0.02244
     Eigenvalues ---    0.02278   0.02293   0.02309   0.02315   0.02319
     Eigenvalues ---    0.02325   0.02335   0.02344   0.02360   0.02363
     Eigenvalues ---    0.02365   0.02371   0.02374   0.02380   0.02398
     Eigenvalues ---    0.02402   0.02415   0.02438   0.02439   0.02453
     Eigenvalues ---    0.02468   0.02708   0.03763   0.03872   0.04188
     Eigenvalues ---    0.04512   0.04643   0.04648   0.04775   0.04786
     Eigenvalues ---    0.05035   0.05220   0.05299   0.05441   0.05751
     Eigenvalues ---    0.05873   0.06290   0.06314   0.06315   0.06468
     Eigenvalues ---    0.07355   0.07473   0.07473   0.07475   0.07868
     Eigenvalues ---    0.08028   0.08281   0.08495   0.08983   0.09905
     Eigenvalues ---    0.10636   0.11794   0.11919   0.12562   0.13604
     Eigenvalues ---    0.15251   0.16000   0.16000   0.16000   0.16000
     Eigenvalues ---    0.16000   0.16000   0.16000   0.16000   0.16000
     Eigenvalues ---    0.16000   0.16000   0.16000   0.16000   0.16000
     Eigenvalues ---    0.16000   0.16000   0.16000   0.17436   0.18162
     Eigenvalues ---    0.21032   0.22000   0.22023   0.22095   0.22370
     Eigenvalues ---    0.22376   0.23387   0.23467   0.23473   0.23737
     Eigenvalues ---    0.24601   0.24603   0.24914   0.24994   0.25000
     Eigenvalues ---    0.25000   0.25000   0.25000   0.25000   0.25000
     Eigenvalues ---    0.25000   0.25000   0.25000   0.25000   0.25000
     Eigenvalues ---    0.25000   0.27274   0.29718   0.31373   0.31490
     Eigenvalues ---    0.31608   0.33756   0.34469   0.37219   0.37226
     Eigenvalues ---    0.37226   0.37226   0.37227   0.37227   0.37228
     Eigenvalues ---    0.37228   0.37229   0.37229   0.37230   0.37230
     Eigenvalues ---    0.37231   0.37231   0.37231   0.37233   0.37234
     Eigenvalues ---    0.37736   0.38007   0.39336   0.39442   0.39966
     Eigenvalues ---    0.40040   0.42461   0.42472   0.42474   0.42475
     Eigenvalues ---    0.42477   0.42478   0.42478   0.42479   0.42480
     Eigenvalues ---    0.42480   0.42485   0.42564   0.43682   0.44195
     Eigenvalues ---    0.44340   0.44341   0.44637   0.45091   0.45172
     Eigenvalues ---    0.45743   0.45940   0.46121   0.46432   0.47356
     Eigenvalues ---    0.48132   0.48868   0.49111   0.49165   0.49768
     Eigenvalues ---    0.50061   0.50234   0.50276   0.50524   0.51638
     Eigenvalues ---    0.51703   0.52587   0.54721   0.55096   0.56564
     Eigenvalues ---    0.57128   0.82030   1.01740
 RFO step:  Lambda=-1.69851380D-01 EMin= 2.30000000D-03
 Linear search not attempted -- first point.
 Maximum step size (   0.300) exceeded in Quadratic search.
    -- Step size scaled by   0.545
 Iteration  1 RMS(Cart)=  0.07869825 RMS(Int)=  0.00101448
 Iteration  2 RMS(Cart)=  0.00332575 RMS(Int)=  0.00009081
 Iteration  3 RMS(Cart)=  0.00000765 RMS(Int)=  0.00009080
 Iteration  4 RMS(Cart)=  0.00000000 RMS(Int)=  0.00009080
 Variable       Old X    -DE/DX   Delta X   Delta X   Delta X     New X
                                 (Linear)    (Quad)   (Total)
    R1        2.85087   0.00389   0.00000   0.00438   0.00438   2.85525
    R2        2.02202   0.00920   0.00000   0.00925   0.00925   2.03128
    R3        2.02207   0.01007   0.00000   0.01012   0.01012   2.03219
    R4        2.02204   0.01008   0.00000   0.01014   0.01014   2.03218
    R5        2.59574   0.02000   0.00000   0.01646   0.01646   2.61220
    R6        2.59257   0.03164   0.00000   0.02590   0.02591   2.61848
    R7        2.60215   0.00230   0.00000   0.00175   0.00175   2.60391
    R8        1.95026   0.03663   0.00000   0.03359   0.03359   1.98385
    R9        2.61802   0.01304   0.00000   0.01052   0.01052   2.62854
   R10        1.95019   0.03443   0.00000   0.03156   0.03156   1.98175
   R11        2.74751   0.01622   0.00000   0.01616   0.01616   2.76368
   R12        2.59981   0.01520   0.00000   0.01215   0.01215   2.61196
   R13        2.36839  -0.07616   0.00000  -0.04194  -0.04194   2.32646
   R14        2.65700  -0.02957   0.00000  -0.02616  -0.02616   2.63084
   R15        2.65077  -0.02607   0.00000  -0.02287  -0.02287   2.62790
   R16        1.86040   0.01168   0.00000   0.00943   0.00943   1.86984
   R17        2.59831   0.00921   0.00000   0.00687   0.00686   2.60517
   R18        2.65430  -0.00144   0.00000  -0.00168  -0.00171   2.65259
   R19        2.63351  -0.00356   0.00000  -0.00330  -0.00329   2.63022
   R20        1.95020   0.03436   0.00000   0.03150   0.03150   1.98170
   R21        2.57880   0.02769   0.00000   0.02227   0.02229   2.60110
   R22        1.95016   0.03173   0.00000   0.02909   0.02909   1.97925
   R23        2.85306   0.02668   0.00000   0.03008   0.03008   2.88313
   R24        2.60402   0.02692   0.00000   0.02272   0.02273   2.62675
   R25        2.74354   0.04958   0.00000   0.04916   0.04916   2.79270
   R26        2.02205   0.00832   0.00000   0.00836   0.00836   2.03041
   R27        2.02205  -0.00478   0.00000  -0.00481  -0.00481   2.01724
   R28        2.76402   0.03905   0.00000   0.03872   0.03869   2.80271
   R29        2.79382   0.05019   0.00000   0.05132   0.05132   2.84514
   R30        1.92748  -0.00957   0.00000  -0.00851  -0.00851   1.91897
   R31        2.86080   0.02133   0.00000   0.02441   0.02448   2.88528
   R32        2.02203   0.00220   0.00000   0.00222   0.00222   2.02425
   R33        2.02199   0.00910   0.00000   0.00915   0.00915   2.03114
   R34        2.74122   0.04776   0.00000   0.04879   0.04882   2.79004
   R35        2.02200   0.00826   0.00000   0.00831   0.00831   2.03030
   R36        2.02197   0.00673   0.00000   0.00677   0.00677   2.02874
   R37        2.72318   0.04703   0.00000   0.04544   0.04544   2.76862
   R38        2.69409   0.05076   0.00000   0.04800   0.04793   2.74202
   R39        1.92750  -0.01455   0.00000  -0.01294  -0.01294   1.91456
   R40        2.02202   0.00830   0.00000   0.00835   0.00835   2.03037
   R41        2.02206   0.00795   0.00000   0.00800   0.00800   2.03006
   R42        2.02207   0.00742   0.00000   0.00746   0.00746   2.02953
   R43        2.89025   0.02132   0.00000   0.02494   0.02494   2.91518
   R44        2.02200   0.00531   0.00000   0.00534   0.00534   2.02734
   R45        2.02201   0.00742   0.00000   0.00746   0.00746   2.02947
   R46        2.02201   0.00788   0.00000   0.00793   0.00793   2.02994
   R47        2.02195   0.00513   0.00000   0.00516   0.00516   2.02711
   R48        2.81044   0.00973   0.00000   0.01046   0.01046   2.82089
   R49        2.57900   0.00965   0.00000   0.00784   0.00783   2.58683
   R50        2.63647  -0.06878   0.00000  -0.05913  -0.05913   2.57733
   R51        2.64199  -0.05853   0.00000  -0.05071  -0.05071   2.59128
   R52        2.57342  -0.04838   0.00000  -0.03791  -0.03791   2.53550
   R53        1.95022   0.03529   0.00000   0.03235   0.03235   1.98258
   R54        2.62835  -0.00118   0.00000  -0.00087  -0.00087   2.62748
   R55        1.95010   0.03824   0.00000   0.03506   0.03506   1.98516
   R56        2.71600  -0.00099   0.00000  -0.00095  -0.00095   2.71506
   R57        2.27950  -0.03344   0.00000  -0.01536  -0.01536   2.26414
   R58        2.71500  -0.01582   0.00000  -0.01513  -0.01513   2.69987
   R59        2.61264   0.01001   0.00000   0.00794   0.00786   2.62050
   R60        2.52634   0.00467   0.00000   0.00506   0.00512   2.53146
   R61        2.53792  -0.01669   0.00000  -0.01425  -0.01435   2.52357
   R62        1.95024   0.03237   0.00000   0.02968   0.02968   1.97993
   R63        2.56652  -0.03160   0.00000  -0.02540  -0.02540   2.54113
   R64        2.62073   0.00675   0.00000   0.00714   0.00720   2.62793
   R65        2.54092   0.02326   0.00000   0.01968   0.01986   2.56078
   R66        2.60544  -0.02048   0.00000  -0.01646  -0.01648   2.58896
   R67        1.95019   0.03481   0.00000   0.03192   0.03192   1.98211
   R68        2.60672   0.04198   0.00000   0.03349   0.03342   2.64014
   R69        1.95017   0.03531   0.00000   0.03237   0.03237   1.98254
[...]
                 (A) (A) (A) (A) (A) (A) (A) (A) (A) (A) (A) (A)
                 (A) (A) (A) (A) (A) (A) (A) (A) (A) (A) (A) (A)
                 (A) (A) (A) (A) (A) (A) (A) (A) (A) (A) (A) (A)
                 (A) (A) (A) (A) (A) (A) (A) (A) (A) (A) (A) (A)
                 (A) (A) (A) (A) (A) (A) (A) (A) (A) (A) (A) (A)
                 (A) (A) (A) (A) (A) (A) (A) (A) (A) (A) (A) (A)
                 (A) (A) (A) (A) (A) (A) (A) (A) (A) (A) (A) (A)
                 (A) (A) (A) (A) (A) (A) (A) (A) (A) (A) (A) (A)
                 (A) (A) (A) (A) (A) (A) (A) (A) (A) (A) (A) (A)
                 (A) (A) (A) (A) (A) (A) (A) (A) (A) (A) (A) (A)
                 (A) (A) (A) (A) (A) (A) (A) (A) (A) (A) (A) (A)
                 (A) (A) (A) (A) (A) (A) (A) (A) (A) (A) (A) (A)
                 (A) (A) (A) (A) (A) (A) (A) (A) (A) (A) (A) (A)
                 (A) (A) (A) (A) (A) (A) (A) (A) (A) (A) (A) (A)
                 (A) (A) (A) (A) (A) (A) (A) (A) (A) (A) (A) (A)
                 (A) (A) (A) (A) (A) (A) (A) (A) (A) (A) (A) (A)
                 (A) (A) (A) (A) (A) (A) (A) (A) (A) (A) (A) (A)
                 (A) (A) (A) (A) (A) (A) (A) (A) (A) (A) (A) (A)
                 (A) (A) (A) (A) (A) (A) (A) (A) (A) (A) (A) (A)
                 (A) (A) (A) (A) (A) (A) (A) (A) (A) (A) (A) (A)
                 (A) (A) (A) (A) (A) (A) (A) (A) (A) (A) (A) (A)
                 (A) (A) (A) (A) (A) (A) (A) (A) (A) (A) (A) (A)
                 (A) (A) (A) (A) (A) (A) (A) (A) (A) (A) (A) (A)
                 (A) (A) (A) (A) (A) (A) (A) (A) (A) (A) (A) (A)
                 (A) (A) (A) (A) (A) (A) (A) (A) (A) (A) (A) (A)
                 (A) (A) (A) (A) (A) (A) (A) (A) (A) (A) (A) (A)
                 (A) (A) (A) (A) (A) (A) (A) (A) (A) (A) (A) (A)
                 (A) (A) (A) (A) (A) (A) (A) (A) (A) (A) (A) (A)
                 (A) (A) (A) (A) (A) (A) (A) (A) (A) (A) (A) (A)
                 (A) (A) (A) (A) (A) (A) (A) (A) (A) (A) (A) (A)
                 (A) (A) (A) (A) (A) (A) (A) (A) (A) (A) (A) (A)
 The electronic state is 1-A.
 Alpha  occ. eigenvalues --  -26.58402 -26.56590 -26.56494 -20.69621 -15.99134
 Alpha  occ. eigenvalues --  -15.98613 -15.78244 -15.77431 -15.72336 -15.64400
 Alpha  occ. eigenvalues --  -11.73799 -11.59510 -11.59381 -11.59098 -11.58350
 Alpha  occ. eigenvalues --  -11.56847 -11.55823 -11.52102 -11.50699 -11.49145
 Alpha  occ. eigenvalues --  -11.48287 -11.46931 -11.45864 -11.43664 -11.40470
 Alpha  occ. eigenvalues --  -11.38659 -11.38410 -11.38255 -11.37878 -11.37756
 Alpha  occ. eigenvalues --  -11.37699 -11.36899 -11.36288 -11.36007 -11.35383
 Alpha  occ. eigenvalues --  -11.35334 -11.34843 -11.33981 -11.32500  -1.96868
 Alpha  occ. eigenvalues --   -1.86816  -1.86360  -1.64817  -1.60534  -1.56837
 Alpha  occ. eigenvalues --   -1.52025  -1.44922  -1.39527  -1.38169  -1.37480
 Alpha  occ. eigenvalues --   -1.33866  -1.30351  -1.28698  -1.28109  -1.25369
 Alpha  occ. eigenvalues --   -1.23526  -1.22842  -1.20999  -1.19784  -1.19647
 Alpha  occ. eigenvalues --   -1.18252  -1.17306  -1.14808  -1.13962  -1.09990
 Alpha  occ. eigenvalues --   -1.09684  -1.08584  -1.07023  -1.06150  -1.05442
 Alpha  occ. eigenvalues --   -1.04507  -1.03504  -1.02337  -1.00464  -1.00407
 Alpha  occ. eigenvalues --   -0.98404  -0.97580  -0.96717  -0.96202  -0.95335
 Alpha  occ. eigenvalues --   -0.94459  -0.94181  -0.94119  -0.93384  -0.92828
 Alpha  occ. eigenvalues --   -0.91886  -0.91563  -0.90062  -0.89642  -0.88622
 Alpha  occ. eigenvalues --   -0.88052  -0.87395  -0.87280  -0.86778  -0.86066
 Alpha  occ. eigenvalues --   -0.85484  -0.85283  -0.84756  -0.82674  -0.82283
 Alpha  occ. eigenvalues --   -0.82049  -0.81438  -0.81003  -0.80627  -0.80136
 Alpha  occ. eigenvalues --   -0.79335  -0.78385  -0.77914  -0.77248  -0.76668
 Alpha  occ. eigenvalues --   -0.75983  -0.75879  -0.75382  -0.74131  -0.72504
 Alpha  occ. eigenvalues --   -0.72125  -0.71642  -0.70400  -0.68875  -0.68771
 Alpha  occ. eigenvalues --   -0.65970  -0.65910  -0.64434  -0.63036  -0.62457
 Alpha  occ. eigenvalues --   -0.62296  -0.60929  -0.58720  -0.58066  -0.57209
 Alpha  occ. eigenvalues --   -0.56756  -0.53265  -0.52735  -0.51404  -0.49914
 Alpha  occ. eigenvalues --   -0.46620  -0.45801  -0.44618  -0.37831
 Alpha virt. eigenvalues --   -0.11825  -0.10422  -0.09196  -0.07331  -0.04468
 Alpha virt. eigenvalues --   -0.03747  -0.03145  -0.02130  -0.01967  -0.00695
 Alpha virt. eigenvalues --   -0.00195  -0.00082   0.00535   0.00918   0.01797
 Alpha virt. eigenvalues --    0.02096   0.03688   0.04004   0.04720   0.04910
 Alpha virt. eigenvalues --    0.05411   0.05885   0.06398   0.06614   0.08259
 Alpha virt. eigenvalues --    0.09023   0.09714   0.09914   0.10465   0.11408
 Alpha virt. eigenvalues --    0.11690   0.12799   0.12960   0.14069   0.14582
 Alpha virt. eigenvalues --    0.15064   0.15551   0.15731   0.16779   0.17003
 Alpha virt. eigenvalues --    0.17680   0.18932   0.19528   0.20205   0.20913
 Alpha virt. eigenvalues --    0.21528   0.21653   0.22670   0.22802   0.23614
 Alpha virt. eigenvalues --    0.23864   0.24040   0.25018   0.25585   0.27229
 Alpha virt. eigenvalues --    0.28035   0.28989   0.29517   0.30313   0.31311
 Alpha virt. eigenvalues --    0.31792   0.32321   0.32672   0.33318   0.33947
 Alpha virt. eigenvalues --    0.34879   0.36123   0.36783   0.37969   0.38713
 Alpha virt. eigenvalues --    0.39147   0.39283   0.39572   0.41272   0.41551
 Alpha virt. eigenvalues --    0.41873   0.43414   0.44203   0.44403   0.44877
 Alpha virt. eigenvalues --    0.46097   0.46493   0.47116   0.48110   0.49962
 Alpha virt. eigenvalues --    0.50166   0.51286   0.52280   0.52800   0.53388
 Alpha virt. eigenvalues --    0.53781   0.54392   0.55432   0.55906   0.56222
 Alpha virt. eigenvalues --    0.56682   0.57292   0.57513   0.58285   0.59256
 Alpha virt. eigenvalues --    0.59506   0.60024   0.60557   0.60813   0.61314
 Alpha virt. eigenvalues --    0.61596   0.61939   0.62979   0.63415   0.63810
 Alpha virt. eigenvalues --    0.64167   0.64612   0.64800   0.64958   0.65140
 Alpha virt. eigenvalues --    0.65486   0.65745   0.66634   0.67078   0.68091
 Alpha virt. eigenvalues --    0.68616   0.69001   0.69531   0.70635   0.71430
 Alpha virt. eigenvalues --    0.71629   0.71709   0.72638   0.73344   0.73471
 Alpha virt. eigenvalues --    0.73956   0.74227   0.74638   0.75054   0.76009
 Alpha virt. eigenvalues --    0.76304   0.76899   0.77432   0.78129   0.78526
 Alpha virt. eigenvalues --    0.79000   0.79428   0.79724   0.80218   0.81477
 Alpha virt. eigenvalues --    0.82056   0.82777   0.82815   0.83649   0.84088
 Alpha virt. eigenvalues --    0.84169   0.84722   0.85659   0.85714   0.86484
 Alpha virt. eigenvalues --    0.87188   0.87350   0.87443   0.87939   0.88558
 Alpha virt. eigenvalues --    0.89199   0.89450   0.89695   0.90100   0.90318
 Alpha virt. eigenvalues --    0.91219   0.91494   0.92302   0.92425   0.92909
 Alpha virt. eigenvalues --    0.93082   0.93858   0.94249   0.94445   0.94664
 Alpha virt. eigenvalues --    0.94829   0.95258   0.95889   0.96228   0.96393
 Alpha virt. eigenvalues --    0.98221   0.98344   0.98530   0.98993   0.99975
 Alpha virt. eigenvalues --    1.00616   1.01001   1.01767   1.01979   1.03023
 Alpha virt. eigenvalues --    1.03496   1.04069   1.05011   1.06373   1.06625
 Alpha virt. eigenvalues --    1.07890   1.08337   1.08800   1.09008   1.09352
 Alpha virt. eigenvalues --    1.09642   1.10593   1.11110   1.11586   1.12454
 Alpha virt. eigenvalues --    1.12872   1.14213   1.14429   1.15683   1.16654
 Alpha virt. eigenvalues --    1.16684   1.17046   1.17699   1.19010   1.19951
 Alpha virt. eigenvalues --    1.20156   1.20641   1.22138   1.22888   1.23345
 Alpha virt. eigenvalues --    1.24330   1.24815   1.25757   1.26472   1.27281
 Alpha virt. eigenvalues --    1.27698   1.28364   1.29008   1.29258   1.30146
 Alpha virt. eigenvalues --    1.31418   1.32829   1.33653   1.35498   1.36241
 Alpha virt. eigenvalues --    1.36802   1.37379   1.37740   1.38794   1.40431
 Alpha virt. eigenvalues --    1.40931   1.41101   1.41886   1.41988   1.42707
 Alpha virt. eigenvalues --    1.43924   1.44868   1.46029   1.47295   1.47345
 Alpha virt. eigenvalues --    1.48565   1.49036   1.49304   1.50260   1.51454
 Alpha virt. eigenvalues --    1.52048   1.52449   1.52808   1.53893   1.54365
 Alpha virt. eigenvalues --    1.54594   1.55109   1.55450   1.56650   1.57859
 Alpha virt. eigenvalues --    1.59467   1.59731   1.59956   1.60149   1.61781
 Alpha virt. eigenvalues --    1.61967   1.62133   1.62635   1.64070   1.64793
 Alpha virt. eigenvalues --    1.65180   1.66943   1.67251   1.68714   1.69521
 Alpha virt. eigenvalues --    1.70439   1.70798   1.71298   1.71861   1.72577
 Alpha virt. eigenvalues --    1.72830   1.74076   1.74642   1.75306   1.76420
 Alpha virt. eigenvalues --    1.77791   1.78496   1.80492   1.80914   1.82207
 Alpha virt. eigenvalues --    1.84364   1.84438   1.85737   1.87497   1.88358
 Alpha virt. eigenvalues --    1.88742   1.89568   1.90681   1.90904   1.91423
 Alpha virt. eigenvalues --    1.91842   1.92231   1.92641   1.93204   1.94598
 Alpha virt. eigenvalues --    1.95037   1.95863   1.96878   1.97608   1.98409
 Alpha virt. eigenvalues --    1.98597   1.99124   1.99599   2.00545   2.01189
 Alpha virt. eigenvalues --    2.01582   2.02672   2.02887   2.03657   2.04790
 Alpha virt. eigenvalues --    2.05667   2.06191   2.06397   2.06897   2.08620
 Alpha virt. eigenvalues --    2.09759   2.09944   2.11724   2.12013   2.12171
 Alpha virt. eigenvalues --    2.12837   2.13202   2.13598   2.14526   2.14920
 Alpha virt. eigenvalues --    2.15941   2.16591   2.16995   2.17689   2.18469
 Alpha virt. eigenvalues --    2.18889   2.19961   2.20513   2.20624   2.21457
 Alpha virt. eigenvalues --    2.22449   2.22824   2.23592   2.24667   2.25253
 Alpha virt. eigenvalues --    2.26188   2.26363   2.26783   2.26984   2.27356
 Alpha virt. eigenvalues --    2.27738   2.29341   2.29580   2.30956   2.31183
 Alpha virt. eigenvalues --    2.31243   2.32425   2.32684   2.35276   2.35688
 Alpha virt. eigenvalues --    2.37417   2.39464   2.39896   2.40605   2.40919
 Alpha virt. eigenvalues --    2.41856   2.42217   2.42849   2.43068   2.43916
 Alpha virt. eigenvalues --    2.44569   2.44721   2.45987   2.46866   2.47867
 Alpha virt. eigenvalues --    2.48457   2.49106   2.50024   2.50282   2.51507
 Alpha virt. eigenvalues --    2.52229   2.52366   2.53171   2.54555   2.54614
 Alpha virt. eigenvalues --    2.55981   2.56758   2.57204   2.58400   2.59108
 Alpha virt. eigenvalues --    2.59298   2.60444   2.61301   2.61369   2.63710
 Alpha virt. eigenvalues --    2.66000   2.67366   2.69169   2.69367   2.69525
 Alpha virt. eigenvalues --    2.71674   2.72059   2.73613   2.74620   2.74990
 Alpha virt. eigenvalues --    2.78768   2.79148   2.79467   2.79964   2.81863
 Alpha virt. eigenvalues --    2.83148   2.83719   2.84598   2.85723   2.86333
 Alpha virt. eigenvalues --    2.88089   2.88872   2.89158   2.90152   2.90630
 Alpha virt. eigenvalues --    2.91532   2.91968   2.93256   2.95643   2.96834
 Alpha virt. eigenvalues --    2.97831   3.00340   3.00683   3.01430   3.04445
 Alpha virt. eigenvalues --    3.06334   3.07199   3.10879   3.11845   3.13803
 Alpha virt. eigenvalues --    3.14268   3.15549   3.18175   3.20113   3.23057
 Alpha virt. eigenvalues --    3.23495   3.24611   3.26914   3.29264   3.29985
 Alpha virt. eigenvalues --    3.32361   3.38314   3.42106   3.50169   3.52378
 Alpha virt. eigenvalues --    3.62003   3.63623   3.70972   3.77798   3.93736
 Alpha virt. eigenvalues --    4.05971   4.17417   4.25063   4.30473   4.33153
 Alpha virt. eigenvalues --    4.35090   4.35827   4.36926   4.38836   4.39544
 Alpha virt. eigenvalues --    4.40489   4.41380   4.43847   4.44952   4.45185
 Alpha virt. eigenvalues --    4.47311   4.48565   4.49443   4.52250   4.53229
 Alpha virt. eigenvalues --    4.56291   4.59068   4.60151   4.60526   4.61096
 Alpha virt. eigenvalues --    4.66707   4.68002   4.71340   4.71864   4.72850
 Alpha virt. eigenvalues --    4.73712   4.83101   4.90404   4.96103   5.00516
 Alpha virt. eigenvalues --    5.15725   5.26887   5.41980   6.10027
          Condensed to atoms (all electrons):
 Mulliken charges:
               1
     1  C   -0.504738
     2  C    0.086793
     3  C   -0.242677
     4  C   -0.165466
     5  C   -0.129127
     6  C    0.824567
     7  O   -0.584201
     8  N   -0.951691
     9  C    0.417321
    10  C   -0.209516
    11  C   -0.213107
    12  C   -0.045875
    13  C   -0.232083
    14  N   -0.715225
    15  C   -0.219684
    16  C   -0.189313
    17  N   -0.712650
    18  C   -0.360583
    19  C   -0.215578
    20  C   -0.172735
    21  C   -0.198682
    22  C    1.202654
    23  F   -0.314867
    24  F   -0.434748
    25  F   -0.347136
    26  C   -0.260985
    27  C   -0.190896
    28  C    0.056183
    29  C   -0.295574
    30  C    0.111977
    31  C    0.207448
    32  C   -0.017136
    33  N   -0.578615
    34  C    0.596938
    35  C   -0.167593
    36  C   -0.249867
    37  C    0.046402
    38  N   -0.229324
    39  N   -0.544552
    40  H    0.189228
    41  H    0.210930
    42  H    0.209268
    43  H    0.234939
    44  H    0.258623
    45  H    0.422736
    46  H    0.335713
    47  H    0.227942
    48  H    0.281602
    49  H    0.245441
    50  H    0.473660
    51  H    0.276901
    52  H    0.297360
    53  H    0.292640
    54  H    0.280931
    55  H    0.485389
    56  H    0.260840
    57  H    0.271275
    58  H    0.271643
    59  H    0.268809
    60  H    0.298212
    61  H    0.286242
    62  H    0.294821
    63  H    0.276683
    64  H    0.215414
    65  H    0.214180
    66  H    0.269680
    67  H    0.248718
    68  H    0.244125
 Sum of Mulliken charges =   2.00000
 Mulliken charges with hydrogens summed into heavy atoms:
               1
     1  C    0.104689
     2  C    0.086793
     3  C   -0.007739
     4  C    0.093157
     5  C   -0.129127
     6  C    0.824567
     7  O   -0.584201
     8  N   -0.528955
     9  C    0.417321
    10  C    0.126196
    11  C    0.014835
    12  C   -0.045875
    13  C    0.294961
    14  N   -0.241565
    15  C    0.354577
    16  C    0.384257
    17  N   -0.227261
    18  C    0.443175
    19  C    0.351444
    20  C    0.408327
    21  C   -0.198682
    22  C    1.202654
    23  F   -0.314867
    24  F   -0.434748
    25  F   -0.347136
    26  C    0.015697
    27  C    0.024518
    28  C    0.056183
    29  C   -0.295574
    30  C    0.111977
    31  C    0.207448
    32  C    0.197044
    33  N   -0.578615
    34  C    0.596938
    35  C    0.102087
    36  C   -0.001149
    37  C    0.290527
    38  N   -0.229324
    39  N   -0.544552
 Electronic spatial extent (au):  <R**2>=          39009.3316
 Charge=              2.0000 electrons
 Dipole moment (field-independent basis, Debye):
    X=             49.7443    Y=             -6.2819    Z=              5.5164  Tot=             50.4419
 Quadrupole moment (field-independent basis, Debye-Ang):
   XX=            313.2927   YY=           -178.8707   ZZ=           -210.5966
   XY=            -63.9528   XZ=             50.2381   YZ=            -10.1577
 Traceless Quadrupole moment (field-independent basis, Debye-Ang):
   XX=            338.6842   YY=           -153.4791   ZZ=           -185.2051
   XY=            -63.9528   XZ=             50.2381   YZ=            -10.1577
 Octapole moment (field-independent basis, Debye-Ang**2):
  XXX=           2306.3580  YYY=            -75.0833  ZZZ=             10.3748  XYY=            268.2087
  XXY=           -603.3385  XXZ=            327.4539  XZZ=            196.9069  YZZ=            -35.6076
  YYZ=              8.2450  XYZ=            -50.6970
 Hexadecapole moment (field-independent basis, Debye-Ang**3):
 XXXX=          -5545.3525 YYYY=          -7050.6428 ZZZZ=          -1020.1972 XXXY=          -2214.7982
 XXXZ=           2338.3914 YYYX=          -1450.6518 YYYZ=            -65.2551 ZZZX=            189.2816
 ZZZY=             24.6059 XXYY=          -5473.8709 XXZZ=          -6878.6158 YYZZ=          -1452.4657
 XXYZ=           -362.4976 YYXZ=            222.1110 ZZXY=           -219.1351
 N-N= 4.018451102487D+03 E-N=-1.223319434731D+04  KE= 1.811993005615D+03
 1\1\GINC-COMPCHEM001\FOpt\RHF\6-31G(d)\C29H29F3N6O1(2+)\PCZBF\16-Jun-2
 023\0\\#n HF 6-31G* opt\\1-1.mol2\\2,1\C,6.6708064092,-2.6536031211,0.
 0564875658\C,5.165091398,-2.7129607103,0.0496645517\C,4.496911705,-3.9
 272491492,-0.0459094413\C,3.1171683417,-3.9969280486,-0.0484550127\C,2
 .3631732414,-2.8318041065,0.0271418524\C,0.884009371,-2.9692429031,0.0
 183983351\O,0.3131865341,-3.9666820399,0.344301706\N,0.1815327972,-1.8
 470107284,-0.4221642173\C,-1.1820774457,-1.6880389165,-0.5003224971\C,
 -2.1143274996,-2.6578064742,-0.1224496058\C,-3.4625830073,-2.389164754
 9,-0.2439882144\C,-3.9510456301,-1.1748032985,-0.7075243603\C,-5.43401
 78872,-0.9863372546,-0.8270896917\N,-6.1441429179,-0.8099032703,0.5397
 461856\C,-7.6117759345,-0.5762615498,0.3776080547\C,-7.9128928663,0.81
 5712047,-0.1866479964\N,-6.9831797284,1.8690728184,0.359233118\C,-7.65
 17088397,3.2165865325,0.4421923469\C,-6.394190875,1.4460024374,1.66424
 23804\C,-5.5365897107,0.190049959,1.5026657659\C,-3.0088733751,-0.2099
 583272,-1.0985813709\C,-3.4440756129,1.11237055,-1.6756684769\F,-2.463
 1517206,1.9247049467,-1.933803074\F,-4.2600526156,1.7676241689,-0.7941
 110114\F,-4.1750689949,0.9732128395,-2.7648752205\C,-1.6622500017,-0.4
 638883506,-0.9968935727\C,3.0149120172,-1.6092142126,0.1342663012\C,4.
 4012732888,-1.5385496923,0.1490168426\C,5.0396802424,-0.2573129943,0.2
 724459574\C,5.5793543536,0.8001926213,0.3735655206\C,6.2149226896,2.06
 07604705,0.494349742\C,5.7140282993,3.3295453259,0.6214855302\N,6.6908
 190088,4.2483326663,0.7076804647\C,7.8082306684,3.5692180435,0.6361584
 955\C,9.165139852,3.9960239208,0.6727376381\C,10.1146573656,3.04781497
 19,0.5756290336\C,9.7168787144,1.6745106417,0.4418630799\N,8.501477885
 9,1.2731709265,0.407098178\N,7.5783500892,2.2338041263,0.5056018849\H,
 7.0970703668,-3.6443921755,-0.0311462536\H,7.0336987546,-2.2006759503,
 0.9724523682\H,7.0364039675,-2.0456399511,-0.7635636961\H,5.0676159091
 ,-4.8347674472,-0.1169072522\H,2.6200495329,-4.9456555558,-0.113296767
 1\H,0.7290760969,-1.1141185712,-0.8130138106\H,-1.7830720197,-3.608093
 2853,0.2338125528\H,-4.149664969,-3.1780438832,0.0167556743\H,-5.90769
 67617,-1.8642000719,-1.2441899058\H,-5.7092793555,-0.1434744288,-1.433
 1361641\H,-6.0468795998,-1.7102043518,0.9832260898\H,-8.0696830876,-0.
 7130512358,1.3466688397\H,-8.012860481,-1.3273824074,-0.2875933705\H,-
 8.9214323292,1.084774257,0.0909043684\H,-7.8439737813,0.8502803272,-1.
 2633312638\H,-6.2146401772,1.9802436004,-0.2867731782\H,-8.4257573931,
 3.1737611176,1.1930290757\H,-8.0748098484,3.4479639683,-0.5236247642\H
 ,-6.9076515936,3.9521209652,0.7062685664\H,-7.2131529726,1.30461442,2.
 3545466405\H,-5.7741075838,2.2486669819,2.0358719543\H,-5.4437605402,-
 0.2913187728,2.4650141846\H,-4.5500830718,0.4250256645,1.1488319288\H,
 -0.9601288996,0.2842964907,-1.3104671499\H,2.4698229628,-0.6899869769,
 0.250193089\H,4.6801177723,3.6052982494,0.6539868272\H,9.3801008974,5.
 0418972682,0.7750053929\H,11.1601261602,3.2883507168,0.5953138849\H,10
 .4575524351,0.9016209267,0.3627653706\\Version=ES64L-G16RevA.03\State=
 1-A\HF=-1814.3555067\RMSD=9.457e-09\RMSF=3.882e-06\Dipole=-19.7504747,
 1.2967138,1.4410147\Quadrupole=258.3900276,-118.7381438,-139.6518838,-
 25.7540681,-23.0411856,5.301274\PG=C01 [X(C29H29F3N6O1)]\\@


 THE PROMISED LAND ALWAYS LIES ON THE OTHER SIDE OF A WILDERNESS.

                         -- HAVELOCK ELLIS
 Job cpu time:       0 days  3 hours  7 minutes 22.4 seconds.
 Elapsed time:       0 days  0 hours 18 minutes 57.2 seconds.
 File lengths (MBytes):  RWF=    260 Int=      0 D2E=      0 Chk=     34 Scr=      1
 Normal termination of Gaussian 16 at Fri Jun 16 14:58:55 2023.
