 Entering Gaussian System, Link 0=g16
 Input=1-1_esp.gau
 Output=1-1_esp.log
 Initial command:
 /home/pczbf/programs/g16/l1.exe "/mnt/1tera/cdk/noncovalentdocking/gbsa/resp/Gau-426332.inp" -scrdir="/mnt/1tera/cdk/noncovalentdocking/gbsa/resp/"
 Entering Link 1 = /home/pczbf/programs/g16/l1.exe PID=    426334.
  
 Copyright (c) 1988,1990,1992,1993,1995,1998,2003,2009,2016,
            Gaussian, Inc.  All Rights Reserved.
  
 This is part of the Gaussian(R) 16 program.  It is based on
 the Gaussian(R) 09 system (copyright 2009, Gaussian, Inc.),
 the Gaussian(R) 03 system (copyright 2003, Gaussian, Inc.),
 the Gaussian(R) 98 system (copyright 1998, Gaussian, Inc.),
 the Gaussian(R) 94 system (copyright 1995, Gaussian, Inc.),
 the Gaussian 92(TM) system (copyright 1992, Gaussian, Inc.),
 the Gaussian 90(TM) system (copyright 1990, Gaussian, Inc.),
 the Gaussian 88(TM) system (copyright 1988, Gaussian, Inc.),
 the Gaussian 86(TM) system (copyright 1986, Carnegie Mellon
 University), and the Gaussian 82(TM) system (copyright 1983,
 Carnegie Mellon University). Gaussian is a federally registered
 trademark of Gaussian, Inc.
  
 This software contains proprietary and confidential information,
 including trade secrets, belonging to Gaussian, Inc.
  
 This software is provided under written license and may be
 used, copied, transmitted, or stored only in accord with that
 written license.
  
 The following legend is applicable only to US Government
 contracts under FAR:
  
                    RESTRICTED RIGHTS LEGEND
  
 Use, reproduction and disclosure by the US Government is
 subject to restrictions as set forth in subparagraphs (a)
 and (c) of the Commercial Computer Software - Restricted
 Rights clause in FAR 52.227-19.
  
 Gaussian, Inc.
 340 Quinnipiac St., Bldg. 40, Wallingford CT 06492
  
  
 ---------------------------------------------------------------
 Warning -- This program may not be used in any manner that
 competes with the business of Gaussian, Inc. or will provide
 assistance to any competitor of Gaussian, Inc.  The licensee
 of this program is prohibited from giving any competitor of
 Gaussian, Inc. access to this program.  By using this program,
 the user acknowledges that Gaussian, Inc. is engaged in the
 business of creating and licensing software in the field of
 computational chemistry and represents and warrants to the
 licensee that it is not a competitor of Gaussian, Inc. and that
 it will not use this program in any manner prohibited above.
 ---------------------------------------------------------------
  

 Cite this work as:
 Gaussian 16, Revision A.03,
 M. J. Frisch, G. W. Trucks, H. B. Schlegel, G. E. Scuseria, 
 M. A. Robb, J. R. Cheeseman, G. Scalmani, V. Barone, 
 G. A. Petersson, H. Nakatsuji, X. Li, M. Caricato, A. V. Marenich, 
 J. Bloino, B. G. Janesko, R. Gomperts, B. Mennucci, H. P. Hratchian, 
 J. V. Ortiz, A. F. Izmaylov, J. L. Sonnenberg, D. Williams-Young, 
 F. Ding, F. Lipparini, F. Egidi, J. Goings, B. Peng, A. Petrone, 
 T. Henderson, D. Ranasinghe, V. G. Zakrzewski, J. Gao, N. Rega, 
 G. Zheng, W. Liang, M. Hada, M. Ehara, K. Toyota, R. Fukuda, 
 J. Hasegawa, M. Ishida, T. Nakajima, Y. Honda, O. Kitao, H. Nakai, 
 T. Vreven, K. Throssell, J. A. Montgomery, Jr., J. E. Peralta, 
 F. Ogliaro, M. J. Bearpark, J. J. Heyd, E. N. Brothers, K. N. Kudin, 
 V. N. Staroverov, T. A. Keith, R. Kobayashi, J. Normand, 
 K. Raghavachari, A. P. Rendell, J. C. Burant, S. S. Iyengar, 
 J. Tomasi, M. Cossi, J. M. Millam, M. Klene, C. Adamo, R. Cammi, 
 J. W. Ochterski, R. L. Martin, K. Morokuma, O. Farkas, 
 J. B. Foresman, and D. J. Fox, Gaussian, Inc., Wallingford CT, 2016.
 
 ******************************************
 Gaussian 16:  ES64L-G16RevA.03 25-Dec-2016
                19-Jun-2023 
 ******************************************
 %nprocshared=8
 Will use up to    8 processors via shared memory.
 -------------------------------------------
 #n HF 6-31G* POP(MK) IOP(6/33=2) scf=direct
 -------------------------------------------
 1/38=1,172=1/1;
 2/12=2,17=6,18=5,40=1/2;
 3/5=1,6=6,7=1,11=9,25=1,30=1/1,2,3;
 4//1;
 5/5=2,38=5/2;
 6/7=2,8=2,9=2,10=2,15=8,20=1,28=1,33=2/1,2;
 99/5=1,9=1/99;
 ---------------------
 gbsa/resp/1-1_opt.log
 ---------------------
 Symbolic Z-matrix:
 Charge =  2 Multiplicity = 1
 C                    -6.11338   3.04782  -0.03348 
 C                    -4.60774   3.02209   0.02247 
 C                    -3.87054   4.19955   0.00726 
 C                    -2.49019   4.19107   0.06291 
 C                    -1.80509   2.983     0.11716 
 C                    -0.32157   3.03675   0.17358 
 O                     0.28877   3.9858    0.56565 
 N                     0.33634   1.89594  -0.28759 
 C                     1.69127   1.66345  -0.31814 
 C                     2.65845   2.56227   0.13903 
 C                     3.99389   2.22306   0.05973 
 C                     4.43422   1.00342  -0.43698 
 C                     5.90836   0.73649  -0.50539 
 N                     6.54923   0.46321   0.87962 
 C                     8.00739   0.15386   0.7661 
 C                     8.25536  -1.22815   0.15354 
 N                     7.24701  -2.24908   0.61491 
 C                     7.83654  -3.63455   0.66505 
 C                     6.62737  -1.84822   1.91272 
 C                     5.84754  -0.54009   1.77251 
 C                     3.45797   0.11062  -0.90749 
 C                     3.84406  -1.20896  -1.52443 
 F                     2.83188  -1.95298  -1.85709 
 F                     4.58482  -1.94559  -0.64071 
 F                     4.62705  -1.06603  -2.57638 
 C                     2.1242    0.43589  -0.84859 
 C                    -2.52683   1.79585   0.14419 
 C                    -3.91436   1.80321   0.10042 
 C                    -4.62671   0.55612   0.14167 
 C                    -5.22735  -0.47244   0.17446 
 C                    -5.93562  -1.69896   0.2141 
 C                    -5.51087  -2.99826   0.30512 
 N                    -6.53934  -3.86309   0.31166 
 C                    -7.61381  -3.11943   0.22554 
 C                    -8.99241  -3.46991   0.18905 
 C                    -9.88354  -2.46625   0.09596 
 C                    -9.40576  -1.11327   0.03883 
 N                    -8.1698   -0.78026   0.07036 
 N                    -7.30573  -1.79488   0.16324 
 H                    -6.48059   4.06394  -0.09433 
 H                    -6.53902   2.57829   0.84641 
 H                    -6.47671   2.4963   -0.89347 
 H                    -4.38711   5.14008  -0.04642 
 H                    -1.9395    5.11202   0.05985 
 H                    -0.23352   1.21218  -0.73191 
 H                     2.36501   3.51407   0.5233 
 H                     4.71153   2.96021   0.38222 
 H                     6.44669   1.60278  -0.86415 
 H                     6.16241  -0.09456  -1.13651 
 H                     6.48278   1.34827   1.3581 
 H                     8.43067   0.22392   1.75777 
 H                     8.47686   0.9082    0.1512 
 H                     9.23497  -1.56521   0.45904 
 H                     8.2303   -1.21376  -0.92551 
 H                     6.50157  -2.28949  -0.06556 
 H                     8.57928  -3.667     1.44737 
 H                     8.28683  -3.84897  -0.29235 
 H                     7.04276  -4.33718   0.86653 
 H                     7.42289  -1.78236   2.64075 
 H                     5.94904  -2.62932   2.22355 
 H                     5.74057  -0.09486   2.75065 
 H                     4.8655   -0.70388   1.36954 
 H                     1.39602  -0.2576   -1.22262 
 H                    -2.03836   0.84321   0.24119 
 H                    -4.49594  -3.3332    0.36671 
 H                    -9.26853  -4.5053    0.23647 
 H                    -10.94052  -2.64784   0.06325 
 H                    -10.09893  -0.29708  -0.03566 
 
 Stoichiometry    C29H29F3N6O(2+)
 Framework group  C1[X(C29H29F3N6O)]
 Deg. of freedom   198
 Full point group                 C1      NOp   1
 Largest Abelian subgroup         C1      NOp   1
 Largest concise Abelian subgroup C1      NOp   1
                         Standard orientation:                         
 ---------------------------------------------------------------------
 Center     Atomic      Atomic             Coordinates (Angstroms)
 Number     Number       Type             X           Y           Z
 ---------------------------------------------------------------------
      1          6           0        6.113380    3.047820    0.033479
      2          6           0        4.607740    3.022090   -0.022471
      3          6           0        3.870540    4.199550   -0.007261
      4          6           0        2.490190    4.191070   -0.062911
      5          6           0        1.805090    2.983000   -0.117161
      6          6           0        0.321570    3.036750   -0.173581
      7          8           0       -0.288770    3.985800   -0.565651
      8          7           0       -0.336340    1.895940    0.287589
      9          6           0       -1.691270    1.663450    0.318139
     10          6           0       -2.658450    2.562270   -0.139031
     11          6           0       -3.993890    2.223060   -0.059731
     12          6           0       -4.434220    1.003420    0.436979
     13          6           0       -5.908360    0.736490    0.505389
     14          7           0       -6.549230    0.463210   -0.879621
     15          6           0       -8.007390    0.153860   -0.766101
     16          6           0       -8.255360   -1.228150   -0.153541
     17          7           0       -7.247010   -2.249080   -0.614911
     18          6           0       -7.836540   -3.634550   -0.665051
     19          6           0       -6.627370   -1.848220   -1.912721
     20          6           0       -5.847540   -0.540090   -1.772511
     21          6           0       -3.457970    0.110620    0.907489
     22          6           0       -3.844060   -1.208960    1.524429
     23          9           0       -2.831880   -1.952980    1.857089
     24          9           0       -4.584820   -1.945590    0.640709
     25          9           0       -4.627050   -1.066030    2.576379
     26          6           0       -2.124200    0.435890    0.848589
     27          6           0        2.526830    1.795850   -0.144191
     28          6           0        3.914360    1.803210   -0.100421
     29          6           0        4.626710    0.556120   -0.141671
     30          6           0        5.227350   -0.472440   -0.174461
     31          6           0        5.935620   -1.698960   -0.214101
     32          6           0        5.510870   -2.998260   -0.305121
     33          7           0        6.539340   -3.863090   -0.311661
     34          6           0        7.613810   -3.119430   -0.225541
     35          6           0        8.992410   -3.469910   -0.189051
     36          6           0        9.883540   -2.466250   -0.095961
     37          6           0        9.405760   -1.113270   -0.038831
     38          7           0        8.169800   -0.780260   -0.070361
     39          7           0        7.305730   -1.794880   -0.163241
     40          1           0        6.480590    4.063940    0.094329
     41          1           0        6.539020    2.578290   -0.846411
     42          1           0        6.476710    2.496300    0.893469
     43          1           0        4.387110    5.140080    0.046419
     44          1           0        1.939500    5.112020   -0.059851
     45          1           0        0.233520    1.212180    0.731909
     46          1           0       -2.365010    3.514070   -0.523301
     47          1           0       -4.711530    2.960210   -0.382221
     48          1           0       -6.446690    1.602780    0.864149
     49          1           0       -6.162410   -0.094560    1.136509
     50          1           0       -6.482780    1.348270   -1.358101
     51          1           0       -8.430670    0.223920   -1.757771
     52          1           0       -8.476860    0.908200   -0.151201
     53          1           0       -9.234970   -1.565210   -0.459041
     54          1           0       -8.230300   -1.213760    0.925509
     55          1           0       -6.501570   -2.289490    0.065559
     56          1           0       -8.579280   -3.667000   -1.447371
     57          1           0       -8.286830   -3.848970    0.292349
     58          1           0       -7.042760   -4.337180   -0.866531
     59          1           0       -7.422890   -1.782360   -2.640751
     60          1           0       -5.949040   -2.629320   -2.223551
     61          1           0       -5.740570   -0.094860   -2.750651
     62          1           0       -4.865500   -0.703880   -1.369541
     63          1           0       -1.396020   -0.257600    1.222619
     64          1           0        2.038360    0.843210   -0.241191
     65          1           0        4.495940   -3.333200   -0.366711
     66          1           0        9.268530   -4.505300   -0.236471
     67          1           0       10.940520   -2.647840   -0.063251
     68          1           0       10.098930   -0.297080    0.035659
 ---------------------------------------------------------------------
 Rotational constants (GHZ):           0.1530085           0.0289782           0.0253693
 Standard basis: 6-31G(d) (6D, 7F)
 There are   643 symmetry adapted cartesian basis functions of A   symmetry.
 There are   643 symmetry adapted basis functions of A   symmetry.
   643 basis functions,  1208 primitive gaussians,   643 cartesian basis functions
   139 alpha electrons      139 beta electrons
       nuclear repulsion energy      4018.4506725726 Hartrees.
 NAtoms=   68 NActive=   68 NUniq=   68 SFac= 1.00D+00 NAtFMM=   60 NAOKFM=T Big=T
 Integral buffers will be    131072 words long.
 Raffenetti 1 integral format.
 Two-electron integral symmetry is turned on.
 One-electron integrals computed using PRISM.
 NBasis=   643 RedAO= T EigKep=  5.02D-05  NBF=   643
 NBsUse=   643 1.00D-06 EigRej= -1.00D+00 NBFU=   643
 ExpMin= 1.61D-01 ExpMax= 7.00D+03 ExpMxC= 1.05D+03 IAcc=3 IRadAn=         5 AccDes= 0.00D+00
 Harris functional with IExCor=  205 and IRadAn=       5 diagonalized for initial guess.
 HarFok:  IExCor=  205 AccDes= 0.00D+00 IRadAn=         5 IDoV= 1 UseB2=F ITyADJ=14
 ICtDFT=  3500011 ScaDFX=  1.000000  1.000000  1.000000  1.000000
 FoFCou: FMM=F IPFlag=           0 FMFlag=      100000 FMFlg1=        2001
         NFxFlg=           0 DoJE=T BraDBF=F KetDBF=T FulRan=T
         wScrn=  0.000000 ICntrl=       500 IOpCl=  0 I1Cent=   200000004 NGrid=           0
         NMat0=    1 NMatS0=      1 NMatT0=    0 NMatD0=    1 NMtDS0=    0 NMtDT0=    0
 Petite list used in FoFCou.
 Requested convergence on RMS density matrix=1.00D-08 within 128 cycles.
 Requested convergence on MAX density matrix=1.00D-06.
 Requested convergence on             energy=1.00D-06.
 No special actions if energy rises.
 Integral accuracy reduced to 1.0D-05 until final iterations.
 Initial convergence to 1.0D-05 achieved.  Increase integral accuracy.
 SCF Done:  E(RHF) =  -1814.35550674     A.U. after   18 cycles
            NFock= 18  Conv=0.38D-08     -V/T= 2.0013
 SCF density gives NOpUse=  1 NOpAll=  1.

 **********************************************************************

            Population analysis using the SCF density.

 **********************************************************************

 Orbital symmetries:
 BldTbl:  Degeneracy threshold= 1.00D-02
       Occupied  (A) (A) (A) (A) (A) (A) (A) (A) (A) (A) (A) (A)
                 (A) (A) (A) (A) (A) (A) (A) (A) (A) (A) (A) (A)
                 (A) (A) (A) (A) (A) (A) (A) (A) (A) (A) (A) (A)
                 (A) (A) (A) (A) (A) (A) (A) (A) (A) (A) (A) (A)
                 (A) (A) (A) (A) (A) (A) (A) (A) (A) (A) (A) (A)
                 (A) (A) (A) (A) (A) (A) (A) (A) (A) (A) (A) (A)
                 (A) (A) (A) (A) (A) (A) (A) (A) (A) (A) (A) (A)
                 (A) (A) (A) (A) (A) (A) (A) (A) (A) (A) (A) (A)
                 (A) (A) (A) (A) (A) (A) (A) (A) (A) (A) (A) (A)
                 (A) (A) (A) (A) (A) (A) (A) (A) (A) (A) (A) (A)
                 (A) (A) (A) (A) (A) (A) (A) (A) (A) (A) (A) (A)
                 (A) (A) (A) (A) (A) (A) (A)
       Virtual   (A) (A) (A) (A) (A) (A) (A) (A) (A) (A) (A) (A)
                 (A) (A) (A) (A) (A) (A) (A) (A) (A) (A) (A) (A)
                 (A) (A) (A) (A) (A) (A) (A) (A) (A) (A) (A) (A)
                 (A) (A) (A) (A) (A) (A) (A) (A) (A) (A) (A) (A)
                 (A) (A) (A) (A) (A) (A) (A) (A) (A) (A) (A) (A)
                 (A) (A) (A) (A) (A) (A) (A) (A) (A) (A) (A) (A)
                 (A) (A) (A) (A) (A) (A) (A) (A) (A) (A) (A) (A)
                 (A) (A) (A) (A) (A) (A) (A) (A) (A) (A) (A) (A)
                 (A) (A) (A) (A) (A) (A) (A) (A) (A) (A) (A) (A)
                 (A) (A) (A) (A) (A) (A) (A) (A) (A) (A) (A) (A)
                 (A) (A) (A) (A) (A) (A) (A) (A) (A) (A) (A) (A)
                 (A) (A) (A) (A) (A) (A) (A) (A) (A) (A) (A) (A)
                 (A) (A) (A) (A) (A) (A) (A) (A) (A) (A) (A) (A)
                 (A) (A) (A) (A) (A) (A) (A) (A) (A) (A) (A) (A)
                 (A) (A) (A) (A) (A) (A) (A) (A) (A) (A) (A) (A)
                 (A) (A) (A) (A) (A) (A) (A) (A) (A) (A) (A) (A)
                 (A) (A) (A) (A) (A) (A) (A) (A) (A) (A) (A) (A)
                 (A) (A) (A) (A) (A) (A) (A) (A) (A) (A) (A) (A)
                 (A) (A) (A) (A) (A) (A) (A) (A) (A) (A) (A) (A)
                 (A) (A) (A) (A) (A) (A) (A) (A) (A) (A) (A) (A)
                 (A) (A) (A) (A) (A) (A) (A) (A) (A) (A) (A) (A)
                 (A) (A) (A) (A) (A) (A) (A) (A) (A) (A) (A) (A)
                 (A) (A) (A) (A) (A) (A) (A) (A) (A) (A) (A) (A)
                 (A) (A) (A) (A) (A) (A) (A) (A) (A) (A) (A) (A)
                 (A) (A) (A) (A) (A) (A) (A) (A) (A) (A) (A) (A)
                 (A) (A) (A) (A) (A) (A) (A) (A) (A) (A) (A) (A)
                 (A) (A) (A) (A) (A) (A) (A) (A) (A) (A) (A) (A)
                 (A) (A) (A) (A) (A) (A) (A) (A) (A) (A) (A) (A)
                 (A) (A) (A) (A) (A) (A) (A) (A) (A) (A) (A) (A)
                 (A) (A) (A) (A) (A) (A) (A) (A) (A) (A) (A) (A)
                 (A) (A) (A) (A) (A) (A) (A) (A) (A) (A) (A) (A)
                 (A) (A) (A) (A) (A) (A) (A) (A) (A) (A) (A) (A)
                 (A) (A) (A) (A) (A) (A) (A) (A) (A) (A) (A) (A)
                 (A) (A) (A) (A) (A) (A) (A) (A) (A) (A) (A) (A)
                 (A) (A) (A) (A) (A) (A) (A) (A) (A) (A) (A) (A)
                 (A) (A) (A) (A) (A) (A) (A) (A) (A) (A) (A) (A)
                 (A) (A) (A) (A) (A) (A) (A) (A) (A) (A) (A) (A)
                 (A) (A) (A) (A) (A) (A) (A) (A) (A) (A) (A) (A)
                 (A) (A) (A) (A) (A) (A) (A) (A) (A) (A) (A) (A)
                 (A) (A) (A) (A) (A) (A) (A) (A) (A) (A) (A) (A)
                 (A) (A) (A) (A) (A) (A) (A) (A) (A) (A) (A) (A)
                 (A) (A) (A) (A) (A) (A) (A) (A) (A) (A) (A) (A)
 The electronic state is 1-A.
 Alpha  occ. eigenvalues --  -26.58402 -26.56590 -26.56494 -20.69621 -15.99134
 Alpha  occ. eigenvalues --  -15.98614 -15.78244 -15.77431 -15.72336 -15.64400
 Alpha  occ. eigenvalues --  -11.73799 -11.59510 -11.59381 -11.59098 -11.58350
 Alpha  occ. eigenvalues --  -11.56847 -11.55822 -11.52102 -11.50699 -11.49145
 Alpha  occ. eigenvalues --  -11.48287 -11.46931 -11.45864 -11.43664 -11.40470
 Alpha  occ. eigenvalues --  -11.38660 -11.38410 -11.38255 -11.37878 -11.37756
 Alpha  occ. eigenvalues --  -11.37699 -11.36898 -11.36288 -11.36007 -11.35382
 Alpha  occ. eigenvalues --  -11.35334 -11.34843 -11.33980 -11.32500  -1.96868
 Alpha  occ. eigenvalues --   -1.86816  -1.86360  -1.64817  -1.60534  -1.56837
 Alpha  occ. eigenvalues --   -1.52024  -1.44922  -1.39527  -1.38169  -1.37480
 Alpha  occ. eigenvalues --   -1.33866  -1.30351  -1.28698  -1.28109  -1.25369
 Alpha  occ. eigenvalues --   -1.23526  -1.22842  -1.20999  -1.19784  -1.19646
 Alpha  occ. eigenvalues --   -1.18252  -1.17306  -1.14808  -1.13962  -1.09990
 Alpha  occ. eigenvalues --   -1.09684  -1.08584  -1.07023  -1.06150  -1.05442
 Alpha  occ. eigenvalues --   -1.04507  -1.03504  -1.02337  -1.00464  -1.00407
 Alpha  occ. eigenvalues --   -0.98404  -0.97580  -0.96717  -0.96202  -0.95335
 Alpha  occ. eigenvalues --   -0.94459  -0.94181  -0.94119  -0.93384  -0.92828
 Alpha  occ. eigenvalues --   -0.91886  -0.91563  -0.90062  -0.89642  -0.88622
 Alpha  occ. eigenvalues --   -0.88052  -0.87395  -0.87280  -0.86778  -0.86066
 Alpha  occ. eigenvalues --   -0.85484  -0.85283  -0.84756  -0.82674  -0.82283
 Alpha  occ. eigenvalues --   -0.82049  -0.81438  -0.81003  -0.80627  -0.80136
 Alpha  occ. eigenvalues --   -0.79335  -0.78385  -0.77914  -0.77247  -0.76668
 Alpha  occ. eigenvalues --   -0.75983  -0.75879  -0.75382  -0.74131  -0.72504
 Alpha  occ. eigenvalues --   -0.72125  -0.71642  -0.70401  -0.68875  -0.68772
 Alpha  occ. eigenvalues --   -0.65970  -0.65910  -0.64434  -0.63036  -0.62457
 Alpha  occ. eigenvalues --   -0.62296  -0.60928  -0.58720  -0.58066  -0.57209
 Alpha  occ. eigenvalues --   -0.56756  -0.53265  -0.52735  -0.51404  -0.49914
 Alpha  occ. eigenvalues --   -0.46620  -0.45801  -0.44618  -0.37831
 Alpha virt. eigenvalues --   -0.11825  -0.10422  -0.09196  -0.07331  -0.04468
 Alpha virt. eigenvalues --   -0.03747  -0.03145  -0.02129  -0.01967  -0.00695
 Alpha virt. eigenvalues --   -0.00195  -0.00082   0.00535   0.00918   0.01797
 Alpha virt. eigenvalues --    0.02096   0.03688   0.04004   0.04720   0.04910
 Alpha virt. eigenvalues --    0.05411   0.05885   0.06398   0.06614   0.08259
 Alpha virt. eigenvalues --    0.09023   0.09714   0.09914   0.10465   0.11408
 Alpha virt. eigenvalues --    0.11690   0.12799   0.12960   0.14069   0.14582
 Alpha virt. eigenvalues --    0.15064   0.15551   0.15731   0.16779   0.17003
 Alpha virt. eigenvalues --    0.17680   0.18932   0.19528   0.20205   0.20913
 Alpha virt. eigenvalues --    0.21528   0.21653   0.22670   0.22802   0.23614
 Alpha virt. eigenvalues --    0.23864   0.24040   0.25018   0.25585   0.27229
 Alpha virt. eigenvalues --    0.28035   0.28989   0.29517   0.30313   0.31311
 Alpha virt. eigenvalues --    0.31791   0.32321   0.32672   0.33318   0.33947
 Alpha virt. eigenvalues --    0.34879   0.36123   0.36783   0.37969   0.38713
 Alpha virt. eigenvalues --    0.39147   0.39283   0.39572   0.41272   0.41551
 Alpha virt. eigenvalues --    0.41873   0.43414   0.44203   0.44402   0.44877
 Alpha virt. eigenvalues --    0.46097   0.46493   0.47116   0.48110   0.49962
 Alpha virt. eigenvalues --    0.50166   0.51286   0.52280   0.52800   0.53388
 Alpha virt. eigenvalues --    0.53781   0.54392   0.55432   0.55906   0.56222
 Alpha virt. eigenvalues --    0.56682   0.57292   0.57513   0.58285   0.59256
 Alpha virt. eigenvalues --    0.59506   0.60024   0.60557   0.60813   0.61314
 Alpha virt. eigenvalues --    0.61596   0.61939   0.62979   0.63415   0.63810
 Alpha virt. eigenvalues --    0.64167   0.64612   0.64800   0.64958   0.65140
 Alpha virt. eigenvalues --    0.65486   0.65744   0.66634   0.67078   0.68091
 Alpha virt. eigenvalues --    0.68616   0.69001   0.69531   0.70635   0.71430
 Alpha virt. eigenvalues --    0.71629   0.71709   0.72638   0.73344   0.73471
 Alpha virt. eigenvalues --    0.73956   0.74227   0.74638   0.75054   0.76009
 Alpha virt. eigenvalues --    0.76304   0.76899   0.77432   0.78129   0.78527
 Alpha virt. eigenvalues --    0.79000   0.79428   0.79724   0.80218   0.81477
 Alpha virt. eigenvalues --    0.82056   0.82777   0.82815   0.83649   0.84088
 Alpha virt. eigenvalues --    0.84169   0.84721   0.85659   0.85714   0.86484
 Alpha virt. eigenvalues --    0.87188   0.87349   0.87443   0.87939   0.88558
 Alpha virt. eigenvalues --    0.89199   0.89450   0.89695   0.90100   0.90318
 Alpha virt. eigenvalues --    0.91219   0.91494   0.92302   0.92425   0.92909
 Alpha virt. eigenvalues --    0.93082   0.93858   0.94249   0.94445   0.94664
 Alpha virt. eigenvalues --    0.94829   0.95258   0.95889   0.96228   0.96393
 Alpha virt. eigenvalues --    0.98221   0.98344   0.98530   0.98993   0.99975
 Alpha virt. eigenvalues --    1.00616   1.01001   1.01767   1.01979   1.03023
 Alpha virt. eigenvalues --    1.03496   1.04069   1.05011   1.06373   1.06625
 Alpha virt. eigenvalues --    1.07890   1.08336   1.08800   1.09008   1.09352
 Alpha virt. eigenvalues --    1.09642   1.10593   1.11110   1.11586   1.12454
 Alpha virt. eigenvalues --    1.12872   1.14213   1.14429   1.15682   1.16654
 Alpha virt. eigenvalues --    1.16684   1.17046   1.17699   1.19010   1.19951
 Alpha virt. eigenvalues --    1.20156   1.20641   1.22138   1.22888   1.23345
 Alpha virt. eigenvalues --    1.24330   1.24815   1.25757   1.26472   1.27282
 Alpha virt. eigenvalues --    1.27698   1.28364   1.29008   1.29258   1.30146
 Alpha virt. eigenvalues --    1.31418   1.32829   1.33653   1.35498   1.36241
 Alpha virt. eigenvalues --    1.36802   1.37380   1.37740   1.38794   1.40431
 Alpha virt. eigenvalues --    1.40931   1.41101   1.41886   1.41988   1.42707
 Alpha virt. eigenvalues --    1.43925   1.44868   1.46029   1.47295   1.47345
 Alpha virt. eigenvalues --    1.48565   1.49036   1.49304   1.50260   1.51454
 Alpha virt. eigenvalues --    1.52048   1.52449   1.52809   1.53893   1.54365
 Alpha virt. eigenvalues --    1.54594   1.55109   1.55450   1.56650   1.57859
 Alpha virt. eigenvalues --    1.59466   1.59731   1.59956   1.60149   1.61781
 Alpha virt. eigenvalues --    1.61968   1.62133   1.62634   1.64070   1.64793
 Alpha virt. eigenvalues --    1.65180   1.66943   1.67251   1.68714   1.69521
 Alpha virt. eigenvalues --    1.70439   1.70798   1.71298   1.71861   1.72577
 Alpha virt. eigenvalues --    1.72830   1.74076   1.74642   1.75306   1.76420
 Alpha virt. eigenvalues --    1.77791   1.78496   1.80492   1.80914   1.82207
 Alpha virt. eigenvalues --    1.84364   1.84438   1.85737   1.87497   1.88358
 Alpha virt. eigenvalues --    1.88742   1.89568   1.90681   1.90904   1.91423
 Alpha virt. eigenvalues --    1.91842   1.92231   1.92641   1.93204   1.94599
 Alpha virt. eigenvalues --    1.95037   1.95863   1.96878   1.97608   1.98409
 Alpha virt. eigenvalues --    1.98597   1.99124   1.99599   2.00546   2.01189
 Alpha virt. eigenvalues --    2.01582   2.02672   2.02887   2.03657   2.04790
 Alpha virt. eigenvalues --    2.05667   2.06191   2.06397   2.06897   2.08620
 Alpha virt. eigenvalues --    2.09759   2.09944   2.11724   2.12013   2.12171
 Alpha virt. eigenvalues --    2.12837   2.13202   2.13598   2.14526   2.14920
 Alpha virt. eigenvalues --    2.15941   2.16591   2.16995   2.17689   2.18469
 Alpha virt. eigenvalues --    2.18889   2.19961   2.20513   2.20625   2.21457
 Alpha virt. eigenvalues --    2.22449   2.22824   2.23592   2.24667   2.25253
 Alpha virt. eigenvalues --    2.26188   2.26363   2.26783   2.26984   2.27356
 Alpha virt. eigenvalues --    2.27738   2.29341   2.29580   2.30956   2.31183
 Alpha virt. eigenvalues --    2.31243   2.32425   2.32685   2.35276   2.35688
 Alpha virt. eigenvalues --    2.37416   2.39464   2.39896   2.40605   2.40919
 Alpha virt. eigenvalues --    2.41856   2.42217   2.42849   2.43068   2.43916
 Alpha virt. eigenvalues --    2.44569   2.44720   2.45987   2.46866   2.47867
 Alpha virt. eigenvalues --    2.48457   2.49106   2.50024   2.50282   2.51507
 Alpha virt. eigenvalues --    2.52229   2.52366   2.53171   2.54555   2.54614
 Alpha virt. eigenvalues --    2.55981   2.56757   2.57204   2.58401   2.59108
 Alpha virt. eigenvalues --    2.59298   2.60444   2.61301   2.61369   2.63710
 Alpha virt. eigenvalues --    2.66000   2.67366   2.69169   2.69367   2.69525
 Alpha virt. eigenvalues --    2.71674   2.72059   2.73613   2.74620   2.74990
 Alpha virt. eigenvalues --    2.78768   2.79148   2.79467   2.79964   2.81863
 Alpha virt. eigenvalues --    2.83148   2.83719   2.84598   2.85723   2.86333
 Alpha virt. eigenvalues --    2.88089   2.88872   2.89158   2.90152   2.90629
 Alpha virt. eigenvalues --    2.91532   2.91968   2.93256   2.95643   2.96834
 Alpha virt. eigenvalues --    2.97831   3.00340   3.00683   3.01429   3.04445
 Alpha virt. eigenvalues --    3.06334   3.07200   3.10879   3.11845   3.13803
 Alpha virt. eigenvalues --    3.14268   3.15549   3.18175   3.20113   3.23057
 Alpha virt. eigenvalues --    3.23496   3.24611   3.26914   3.29264   3.29985
 Alpha virt. eigenvalues --    3.32361   3.38314   3.42106   3.50169   3.52378
 Alpha virt. eigenvalues --    3.62003   3.63623   3.70972   3.77798   3.93737
 Alpha virt. eigenvalues --    4.05971   4.17417   4.25063   4.30473   4.33153
 Alpha virt. eigenvalues --    4.35090   4.35827   4.36926   4.38836   4.39544
 Alpha virt. eigenvalues --    4.40489   4.41381   4.43847   4.44952   4.45185
 Alpha virt. eigenvalues --    4.47311   4.48565   4.49443   4.52250   4.53229
 Alpha virt. eigenvalues --    4.56291   4.59068   4.60151   4.60526   4.61096
 Alpha virt. eigenvalues --    4.66707   4.68003   4.71340   4.71864   4.72850
 Alpha virt. eigenvalues --    4.73712   4.83101   4.90405   4.96103   5.00516
 Alpha virt. eigenvalues --    5.15725   5.26887   5.41980   6.10027
          Condensed to atoms (all electrons):
 Mulliken charges:
               1
     1  C   -0.504740
     2  C    0.086792
     3  C   -0.242674
     4  C   -0.165467
     5  C   -0.129129
     6  C    0.824566
     7  O   -0.584199
     8  N   -0.951688
     9  C    0.417318
    10  C   -0.209518
    11  C   -0.213108
    12  C   -0.045873
    13  C   -0.232082
    14  N   -0.715226
    15  C   -0.219686
    16  C   -0.189311
    17  N   -0.712652
    18  C   -0.360583
    19  C   -0.215575
    20  C   -0.172735
    21  C   -0.198683
    22  C    1.202658
    23  F   -0.314868
    24  F   -0.434745
    25  F   -0.347141
    26  C   -0.260982
    27  C   -0.190896
    28  C    0.056185
    29  C   -0.295581
    30  C    0.111979
    31  C    0.207452
    32  C   -0.017135
    33  N   -0.578616
    34  C    0.596934
    35  C   -0.167591
    36  C   -0.249870
    37  C    0.046405
    38  N   -0.229326
    39  N   -0.544551
    40  H    0.189229
    41  H    0.210930
    42  H    0.209268
    43  H    0.234939
    44  H    0.258623
    45  H    0.422735
    46  H    0.335712
    47  H    0.227943
    48  H    0.281603
    49  H    0.245440
    50  H    0.473660
    51  H    0.276900
    52  H    0.297360
    53  H    0.292640
    54  H    0.280931
    55  H    0.485389
    56  H    0.260840
    57  H    0.271276
    58  H    0.271641
    59  H    0.268808
    60  H    0.298212
    61  H    0.286243
    62  H    0.294819
    63  H    0.276683
    64  H    0.215415
    65  H    0.214180
    66  H    0.269681
    67  H    0.248717
    68  H    0.244126
 Sum of Mulliken charges =   2.00000
 Mulliken charges with hydrogens summed into heavy atoms:
               1
     1  C    0.104686
     2  C    0.086792
     3  C   -0.007735
     4  C    0.093156
     5  C   -0.129129
     6  C    0.824566
     7  O   -0.584199
     8  N   -0.528953
     9  C    0.417318
    10  C    0.126194
    11  C    0.014835
    12  C   -0.045873
    13  C    0.294961
    14  N   -0.241566
    15  C    0.354575
    16  C    0.384259
    17  N   -0.227262
    18  C    0.443173
    19  C    0.351446
    20  C    0.408328
    21  C   -0.198683
    22  C    1.202658
    23  F   -0.314868
    24  F   -0.434745
    25  F   -0.347141
    26  C    0.015701
    27  C    0.024518
    28  C    0.056185
    29  C   -0.295581
    30  C    0.111979
    31  C    0.207452
    32  C    0.197045
    33  N   -0.578616
    34  C    0.596934
    35  C    0.102090
    36  C   -0.001153
    37  C    0.290531
    38  N   -0.229326
    39  N   -0.544551
 DipInt: DoE/N= T F RetVal/Mat= T F Init=T NMatP=  1 IDeriv=0 Min/MaxMlt=  0  4
 Entering OneElI...
 OneElI was handed   103807588 working-precision words.
 Multipole integrals L=0 to 4 MinM= 0 MaxM= 0.
 Requested accuracy = 0.1000D-12
 PrtBox:  NBox=     2 Levels=  1 BoxLen=   35.86 SMaxX=       38.13
          Shift=           17.451565            8.513783            5.197977
 Box      1 Number                   0 centers from      1 to    206:
 Box      2 Number                   4 centers from    207 to    214:
 ShPair: Thresh= 1.00D-13 NBox=     2 BxSize= 3.59D+01 RnKept= 2.16D+01
         NSMCal=                23005 NSMKep=               10745
 PrmmSu-InSpLW:  IPartL=    0 NPrtUS=    1 NPrtUL=    1 DoSpLW=F IThBeg=    0 IThEnd=    0 NThAct=    1.
 PrsmSu:  NPrtUS=   1 ThrOK=F IAlg=1 NPAlg=1 LenDen=           0 ISkipM=0 DoSpLW=F IThBeg=    0 IThEnd=    0.
 Prism:   IPart=     0 DynPar=F LinDyn=F Incr=         107.
 PRISM was handed   102704908 working-precision words and 10745 shell-pairs
 IPart=  0 NShTot=       10745 NBatch=         104 AvBLen=       103.3
 PrsmSu-ThDecC:  IPartSL=    0    0 NPrtUSL=    1    1 IThBeg=    0 IThEnd=    0 CPU=   -1 GPU=   -1 NThAct=    1.
 PrSmSu:  NxtVal=            108.
 Electronic moments (au):
       -278.00000000        -19.57091101         -2.47147304         -2.17034778
     -32405.95186818      -5664.32730817       -939.05263668         47.54711176
         37.35366061          7.55139999     -64241.18622220      -4876.36804682
       -669.10584140     -17927.17545538      70251.40844002      13250.39173359
       6673.00733702       1509.70664183       1631.96547630       -218.59921953
   -6348509.69622723    -238844.41834372     -13585.40593150     360796.23236972
    -100651.76329227     -12698.44247942      -2589.48256495       1061.34522255
       1586.60729051    -622345.79302211     -95454.03062663     -10891.71220170
     -48028.52357633      -1207.33621213     -14650.86122183
 Electronic spatial extent (au):  <R**2>=          39009.3318
 DipInt: DoE/N= F T RetVal/Mat= T F Init=T NMatP=  1 IDeriv=0 Min/MaxMlt=  0  4
 Nuclear    moments (au):
        280.00000000          0.00000000          0.00000000         -0.00000000
      32638.87720207       5531.34121336        782.47917941          0.00000000
         -0.00279732          0.00049849      61000.84155822       4770.88038671
        654.52888035      17550.35269189     -71099.07278237     -13710.45333757
      -6949.65459771      -1559.73354133      -1643.54946917        147.37202288
    6333786.77733052     220124.96223967      10876.77890987    -354915.99912592
     106860.16592449      16549.90254964       2762.72328730       -558.79109553
      -1651.93625516     607812.65239656      77191.30034897       7035.41551036
      48990.94139306       1797.03643875      15232.66376109
 Total      moments (au):
          2.00000000        -19.57091101         -2.47147304         -2.17034778
        232.92533388       -132.98609482       -156.57345727         47.54711176
         37.35086329          7.55189848      -3240.34466398       -105.48766011
        -14.57696105       -376.82276349       -847.66434235       -460.06160398
       -276.64726069        -50.02689950        -11.58399287        -71.22719665
     -14722.91889671     -18719.45610405      -2708.62702163       5880.23324380
       6208.40263222       3851.46007022        173.24072236        502.55412701
        -65.32896465     -14533.14062555     -18262.73027766      -3856.29669133
        962.41781673        589.70022662        581.80253926
 Traceless Quadrup. (au):
        251.80340662       -114.10802208       -137.69538454         47.54711176
         37.35086329          7.55189848
 Charge=              2.0000 electrons
 Dipole moment (field-independent basis, Debye):
    X=            -49.7443    Y=             -6.2819    Z=             -5.5165  Tot=             50.4419
 Quadrupole moment (field-independent basis, Debye-Ang):
   XX=            313.2926   YY=           -178.8709   ZZ=           -210.5967
   XY=             63.9525   XZ=             50.2382   YZ=             10.1576
 Traceless Quadrupole moment (field-independent basis, Debye-Ang):
   XX=            338.6842   YY=           -153.4792   ZZ=           -185.2050
   XY=             63.9525   XZ=             50.2382   YZ=             10.1576
 Octapole moment (field-independent basis, Debye-Ang**2):
  XXX=          -2306.3525  YYY=            -75.0821  ZZZ=            -10.3753  XYY=           -268.2079
  XXY=           -603.3348  XXZ=           -327.4541  XZZ=           -196.9069  YZZ=            -35.6072
  YYZ=             -8.2450  XYZ=            -50.6968
 Hexadecapole moment (field-independent basis, Debye-Ang**3):
 XXXX=          -5545.3572 YYYY=          -7050.6448 ZZZZ=          -1020.1988 XXXY=           2214.7778
 XXXZ=           2338.3821 YYYX=           1450.6445 YYYZ=             65.2508 ZZZX=            189.2860
 ZZZY=            -24.6060 XXYY=          -5473.8776 XXZZ=          -6878.6199 YYZZ=          -1452.4662
 XXYZ=            362.4927 YYXZ=            222.1094 ZZXY=            219.1347
 N-N= 4.018450672573D+03 E-N=-1.223319348152D+04  KE= 1.811992999893D+03
 Entering OneElI...
 OneElI was handed   104012223 working-precision words.
 Calculate electrostatic properties
    NBasis =   643  MinDer = 0  MaxDer = 0
    NGrid  =    68  NMatD  =   1
 Requested accuracy = 0.1000D-12
 PrtBox:  NBox=     2 Levels=  1 BoxLen=   29.89 SMaxX=       38.13
          Shift=           17.451565            8.513783            5.197977
 Box      1 Number                   0 centers from      1 to    184:
 Box      2 Number                   4 centers from    185 to    214:
 ShPair: Thresh= 1.00D-13 NBox=     2 BxSize= 2.99D+01 RnKept= 1.88D+01
         NSMCal=                23005 NSMKep=                9183
 PrmmSu-InSpLW:  IPartL=    0 NPrtUS=    8 NPrtUL=    1 DoSpLW=F IThBeg=    0 IThEnd=    7 NThAct=    8.
 PrsmSu:  NPrtUS=   8 ThrOK=T IAlg=1 NPAlg=1 LenDen=           0 ISkipM=0 DoSpLW=F IThBeg=    0 IThEnd=    7.
 Prism:   IPart=     0 DynPar=F LinDyn=F Incr=         512.
 PRISM was handed    12644279 working-precision words and  9183 shell-pairs
 PRISM was handed    12644279 working-precision words and  9183 shell-pairs
 PRISM was handed    12644279 working-precision words and  9183 shell-pairs
 PRISM was handed    12644279 working-precision words and  9183 shell-pairs
 PRISM was handed    12644279 working-precision words and  9183 shell-pairs
 PRISM was handed    12644279 working-precision words and  9183 shell-pairs
 PRISM was handed    12644279 working-precision words and  9183 shell-pairs
 PRISM was handed    12644279 working-precision words and  9183 shell-pairs
 IPart=  0 NShTot=       79560 NBatch=        1170 AvBLen=        68.0
 PrsmSu-ThDecC:  IPartSL=    0    0 NPrtUSL=    8    1 IThBeg=    0 IThEnd=    7 CPU=   -1 GPU=   -1 NThAct=    8.
 IPart=  4 NShTot=       77792 NBatch=        1144 AvBLen=        68.0
 PrsmSu-ThDecC:  IPartSL=    4    0 NPrtUSL=    8    1 IThBeg=    0 IThEnd=    7 CPU=   -1 GPU=   -1 NThAct=    7.
 IPart=  5 NShTot=       77520 NBatch=        1140 AvBLen=        68.0
 PrsmSu-ThDecC:  IPartSL=    5    0 NPrtUSL=    8    1 IThBeg=    0 IThEnd=    7 CPU=   -1 GPU=   -1 NThAct=    6.
 IPart=  1 NShTot=       79084 NBatch=        1163 AvBLen=        68.0
 PrsmSu-ThDecC:  IPartSL=    1    0 NPrtUSL=    8    1 IThBeg=    0 IThEnd=    7 CPU=   -1 GPU=   -1 NThAct=    5.
 IPart=  6 NShTot=       77180 NBatch=        1135 AvBLen=        68.0
 PrsmSu-ThDecC:  IPartSL=    6    0 NPrtUSL=    8    1 IThBeg=    0 IThEnd=    7 CPU=   -1 GPU=   -1 NThAct=    4.
 IPart=  7 NShTot=       76568 NBatch=        1126 AvBLen=        68.0
 PrsmSu-ThDecC:  IPartSL=    7    0 NPrtUSL=    8    1 IThBeg=    0 IThEnd=    7 CPU=   -1 GPU=   -1 NThAct=    3.
 IPart=  2 NShTot=       78676 NBatch=        1157 AvBLen=        68.0
 PrsmSu-ThDecC:  IPartSL=    2    0 NPrtUSL=    8    1 IThBeg=    0 IThEnd=    7 CPU=   -1 GPU=   -1 NThAct=    2.
 IPart=  3 NShTot=       78064 NBatch=        1148 AvBLen=        68.0
 PrsmSu-ThDecC:  IPartSL=    3    0 NPrtUSL=    8    1 IThBeg=    0 IThEnd=    7 CPU=   -1 GPU=   -1 NThAct=    1.
 PrSmSu:  NxtVal=           4097.
 --------------------------------------------------------
       Center         ----      EFG at Nuclei      ----
                      3XX-RR        3YY-RR        3ZZ-RR
 --------------------------------------------------------
     1   Atom       -0.110856      0.058356      0.052501
     2   Atom        0.223495      0.224407     -0.447902
     3   Atom        0.168409      0.148292     -0.316700
     4   Atom        0.235534      0.181395     -0.416929
     5   Atom       -0.022670      0.185852     -0.163183
     6   Atom        0.378262      0.038300     -0.416562
     7   Atom        1.078376     -0.311913     -0.766463
     8   Atom       -0.564091     -0.075752      0.639843
     9   Atom        0.076063      0.202250     -0.278313
    10   Atom        0.107150      0.145261     -0.252411
    11   Atom        0.227394      0.067006     -0.294400
    12   Atom       -0.088013      0.116959     -0.028946
    13   Atom        0.167672      0.238678     -0.406350
    14   Atom       -0.062211     -0.003551      0.065761
    15   Atom       -0.344164      0.108112      0.236052
    16   Atom       -0.040800     -0.142120      0.182920
    17   Atom        0.023915     -0.027783      0.003868
    18   Atom        0.139936     -0.395154      0.255218
    19   Atom        0.130821      0.117677     -0.248499
    20   Atom        0.110233     -0.144639      0.034407
    21   Atom        0.224847     -0.048651     -0.176195
    22   Atom       -0.162721      0.296420     -0.133698
    23   Atom       -1.105820     -0.030838      1.136658
    24   Atom       -0.004765      0.211807     -0.207042
    25   Atom       -0.189066      1.493606     -1.304541
    26   Atom        0.131426      0.065131     -0.196557
    27   Atom        0.188280      0.140052     -0.328332
    28   Atom        0.152129      0.068278     -0.220407
    29   Atom       -0.072606      0.094642     -0.022036
    30   Atom       -0.002876      0.155092     -0.152216
    31   Atom       -0.224243      0.137032      0.087211
    32   Atom        0.154993      0.126724     -0.281717
    33   Atom       -0.462601      0.863161     -0.400560
    34   Atom        0.290695     -0.090404     -0.200291
    35   Atom        0.158966      0.236763     -0.395729
    36   Atom        0.174913      0.137054     -0.311967
    37   Atom        0.140500      0.225414     -0.365914
    38   Atom       -0.184096      0.624317     -0.440220
    39   Atom       -0.246840     -0.261771      0.508611
    40   Atom        0.096050     -0.261815      0.165764
    41   Atom        0.077183      0.074591     -0.151775
    42   Atom        0.096673      0.040728     -0.137401
    43   Atom        0.038668     -0.214240      0.175571
    44   Atom        0.031042     -0.202397      0.171354
    45   Atom       -0.023004     -0.098708      0.121712
    46   Atom        0.123124     -0.225611      0.102487
    47   Atom       -0.069393     -0.058949      0.128342
    48   Atom        0.036506     -0.133157      0.096652
    49   Atom        0.129672     -0.132293      0.002621
    50   Atom        0.183997     -0.242176      0.058178
    51   Atom        0.075577      0.154571     -0.230148
    52   Atom        0.059273     -0.070220      0.010947
    53   Atom       -0.216049      0.093207      0.122842
    54   Atom        0.152140      0.145284     -0.297424
    55   Atom       -0.104160      0.172967     -0.068808
    56   Atom       -0.055147      0.137071     -0.081924
    57   Atom        0.084742      0.122783     -0.207525
    58   Atom       -0.105686     -0.046344      0.152031
    59   Atom       -0.100956      0.154823     -0.053867
    60   Atom       -0.023311     -0.089109      0.112419
    61   Atom        0.159193      0.058516     -0.217709
    62   Atom       -0.223662      0.137905      0.085758
    63   Atom       -0.075967     -0.042454      0.118421
    64   Atom        0.043153     -0.218514      0.175361
    65   Atom       -0.288996      0.112000      0.176996
    66   Atom        0.122469     -0.292399      0.169929
    67   Atom       -0.314100      0.137782      0.176319
    68   Atom       -0.050232     -0.119713      0.169945
 --------------------------------------------------------
                        XY            XZ            YZ
 --------------------------------------------------------
     1   Atom       -0.022353     -0.007256     -0.000183
     2   Atom       -0.029263      0.024958      0.024612
     3   Atom       -0.008038      0.021887      0.016865
     4   Atom       -0.018081      0.033614      0.029047
     5   Atom        0.008868      0.004155      0.013479
     6   Atom       -0.146403      0.072411     -0.235079
     7   Atom        0.995430     -0.450507     -0.284803
     8   Atom       -0.085402     -0.098863      0.526694
     9   Atom       -0.063948      0.059339     -0.283096
    10   Atom        0.071046     -0.005363     -0.208807
    11   Atom        0.038032     -0.002382     -0.195483
    12   Atom       -0.013431      0.010400     -0.079751
    13   Atom       -0.065131     -0.252228     -0.147791
    14   Atom       -0.010457      0.066340     -0.067679
    15   Atom       -0.140926      0.037184      0.068406
    16   Atom        0.276352      0.164100     -0.086181
    17   Atom        0.055238      0.088505      0.009608
    18   Atom       -0.283304     -0.014432     -0.025817
    19   Atom       -0.130702      0.217691      0.136505
    20   Atom        0.130013      0.220829     -0.281541
    21   Atom       -0.017038      0.039092     -0.071741
    22   Atom        0.082520     -0.121397     -0.307786
    23   Atom        1.962157     -0.911085      0.618841
    24   Atom       -1.153471     -1.400212     -1.381532
    25   Atom        0.260460      1.969629     -0.331819
    26   Atom       -0.005741      0.025242     -0.159654
    27   Atom       -0.034207      0.011619      0.034527
    28   Atom        0.088723      0.015122      0.016569
    29   Atom       -0.173272     -0.010719      0.000391
    30   Atom       -0.119444     -0.001394      0.011159
    31   Atom        0.085417     -0.007716      0.006467
    32   Atom        0.056515      0.021482      0.025551
    33   Atom        0.042801      0.000114      0.073493
    34   Atom        0.045166      0.022734      0.008109
    35   Atom        0.048744      0.025506      0.037939
    36   Atom        0.038821      0.022153      0.027146
    37   Atom        0.045461      0.023371      0.035531
    38   Atom       -0.888614     -0.040011      0.024085
    39   Atom       -0.187716     -0.041563     -0.051632
    40   Atom       -0.146039     -0.009486     -0.025383
    41   Atom        0.075291      0.147570     -0.167619
    42   Atom        0.075128     -0.123839      0.192317
    43   Atom       -0.200037     -0.012514     -0.021904
    44   Atom        0.208592      0.003530     -0.002221
    45   Atom        0.228956     -0.155143      0.223348
    46   Atom       -0.101126      0.040750      0.161519
    47   Atom        0.210223     -0.098645      0.101885
    48   Atom        0.185840      0.062337     -0.118652
    49   Atom       -0.099061      0.054547      0.209528
    50   Atom       -0.029671      0.018205      0.230445
    51   Atom        0.000769     -0.155499      0.026343
    52   Atom        0.125032      0.113783     -0.182149
    53   Atom       -0.120891     -0.117794     -0.047137
    54   Atom        0.012493     -0.015882     -0.007946
    55   Atom        0.013172     -0.261261      0.010777
    56   Atom       -0.011526     -0.235157      0.000516
    57   Atom       -0.045239      0.171652      0.069139
    58   Atom        0.208111      0.067380     -0.056308
    59   Atom        0.017782     -0.216713      0.028275
    60   Atom        0.202027      0.088937     -0.082303
    61   Atom       -0.010578      0.041365      0.163110
    62   Atom        0.072265     -0.157241      0.014834
    63   Atom        0.201288     -0.111479      0.117185
    64   Atom       -0.197878     -0.014213     -0.037670
    65   Atom       -0.144092     -0.027619     -0.009842
    66   Atom        0.122857      0.004985     -0.021231
    67   Atom        0.079589     -0.015477      0.001026
    68   Atom       -0.232193     -0.022234     -0.026027
 --------------------------------------------------------


 ---------------------------------------------------------------------------------
              Nuclear Quadrupole Coupling Constant in Principal Axis System
 ---------------------------------------------------------------------------------

       Atom             a.u.   MegaHertz   Gauss  10(-4) cm-1        Axes

              Baa    -0.5787     2.779     0.992     0.927  0.9881  0.1531  0.0140
     8 N(14)  Bbb    -0.3509     1.685     0.601     0.562 -0.1282  0.8703 -0.4755
              Bcc     0.9296    -4.465    -1.593    -1.489 -0.0850  0.4680  0.8796
 
              Baa    -0.0946     0.454     0.162     0.152  0.8568 -0.2406 -0.4561
    14 N(14)  Bbb    -0.0332     0.160     0.057     0.053  0.4076  0.8577  0.3132
              Bcc     0.1278    -0.614    -0.219    -0.205  0.3158 -0.4543  0.8330
 
              Baa    -0.0919     0.441     0.157     0.147  0.6649 -0.4880 -0.5655
    17 N(14)  Bbb    -0.0270     0.130     0.046     0.043  0.1110  0.8132 -0.5714
              Bcc     0.1189    -0.571    -0.204    -0.190  0.7387  0.3171  0.5948
 
              Baa    -0.4641     2.229     0.795     0.743  0.9987 -0.0343  0.0379
    33 N(14)  Bbb    -0.4047     1.944     0.694     0.648 -0.0398 -0.0565  0.9976
              Bcc     0.8688    -4.173    -1.489    -1.392  0.0321  0.9978  0.0578
 
              Baa    -0.7575     3.638     1.298     1.213  0.8398  0.5390  0.0650
    38 N(14)  Bbb    -0.4400     2.113     0.754     0.705 -0.0408 -0.0567  0.9976
              Bcc     1.1974    -5.751    -2.052    -1.918 -0.5413  0.8404  0.0256
 
              Baa    -0.4467     2.146     0.766     0.716  0.6905  0.7200  0.0690
    39 N(14)  Bbb    -0.0665     0.319     0.114     0.107  0.7222 -0.6916 -0.0099
              Bcc     0.5132    -2.465    -0.880    -0.822 -0.0406 -0.0566  0.9976
 

 ---------------------------------------------------------------------------------

 No NMR shielding tensors so no spin-rotation constants.
 Leave Link  601 at Mon Jun 19 14:51:07 2023, MaxMem=   104857600 cpu:               2.3 elap:               0.3
 FitSet:  NAtFit=    68 NAtPot=    68 NAtFrz=     0 MDM=    72 TotChg=   2.00000
 Merz-Kollman atomic radii used.
 Atom Element Radius
    1     6    1.50
    2     6    1.50
    3     6    1.50
    4     6    1.50
    5     6    1.50
    6     6    1.50
    7     8    1.40
    8     7    1.50
    9     6    1.50
   10     6    1.50
   11     6    1.50
   12     6    1.50
   13     6    1.50
   14     7    1.50
   15     6    1.50
   16     6    1.50
   17     7    1.50
   18     6    1.50
   19     6    1.50
   20     6    1.50
   21     6    1.50
   22     6    1.50
   23     9    1.35
   24     9    1.35
   25     9    1.35
   26     6    1.50
   27     6    1.50
   28     6    1.50
   29     6    1.50
   30     6    1.50
   31     6    1.50
   32     6    1.50
   33     7    1.50
   34     6    1.50
   35     6    1.50
   36     6    1.50
   37     6    1.50
   38     7    1.50
   39     7    1.50
   40     1    1.20
   41     1    1.20
   42     1    1.20
   43     1    1.20
   44     1    1.20
   45     1    1.20
   46     1    1.20
   47     1    1.20
   48     1    1.20
   49     1    1.20
   50     1    1.20
   51     1    1.20
   52     1    1.20
   53     1    1.20
   54     1    1.20
   55     1    1.20
   56     1    1.20
   57     1    1.20
   58     1    1.20
   59     1    1.20
   60     1    1.20
   61     1    1.20
   62     1    1.20
   63     1    1.20
   64     1    1.20
   65     1    1.20
   66     1    1.20
   67     1    1.20
   68     1    1.20
 Generate VDW surfaces: Layer= 4 Dens= 1 Start= 1.400 Inc= 0.200

 **********************************************************************

            Electrostatic Properties Using The SCF Density

 **********************************************************************

       Atomic Center    1 is at   6.113380  3.047820  0.033479
       Atomic Center    2 is at   4.607740  3.022090 -0.022471
       Atomic Center    3 is at   3.870540  4.199550 -0.007261
       Atomic Center    4 is at   2.490190  4.191070 -0.062911
       Atomic Center    5 is at   1.805090  2.983000 -0.117161
       Atomic Center    6 is at   0.321570  3.036750 -0.173581
       Atomic Center    7 is at  -0.288770  3.985800 -0.565651
       Atomic Center    8 is at  -0.336340  1.895940  0.287589
       Atomic Center    9 is at  -1.691270  1.663450  0.318139
       Atomic Center   10 is at  -2.658450  2.562270 -0.139031
       Atomic Center   11 is at  -3.993890  2.223060 -0.059731
       Atomic Center   12 is at  -4.434220  1.003420  0.436979
       Atomic Center   13 is at  -5.908360  0.736490  0.505389
       Atomic Center   14 is at  -6.549230  0.463210 -0.879621
       Atomic Center   15 is at  -8.007390  0.153860 -0.766101
       Atomic Center   16 is at  -8.255360 -1.228150 -0.153541
       Atomic Center   17 is at  -7.247010 -2.249080 -0.614911
       Atomic Center   18 is at  -7.836540 -3.634550 -0.665051
       Atomic Center   19 is at  -6.627370 -1.848220 -1.912721
       Atomic Center   20 is at  -5.847540 -0.540090 -1.772511
       Atomic Center   21 is at  -3.457970  0.110620  0.907489
       Atomic Center   22 is at  -3.844060 -1.208960  1.524429
       Atomic Center   23 is at  -2.831880 -1.952980  1.857089
       Atomic Center   24 is at  -4.584820 -1.945590  0.640709
       Atomic Center   25 is at  -4.627050 -1.066030  2.576379
       Atomic Center   26 is at  -2.124200  0.435890  0.848589
       Atomic Center   27 is at   2.526830  1.795850 -0.144191
       Atomic Center   28 is at   3.914360  1.803210 -0.100421
       Atomic Center   29 is at   4.626710  0.556120 -0.141671
       Atomic Center   30 is at   5.227350 -0.472440 -0.174461
       Atomic Center   31 is at   5.935620 -1.698960 -0.214101
       Atomic Center   32 is at   5.510870 -2.998260 -0.305121
       Atomic Center   33 is at   6.539340 -3.863090 -0.311661
       Atomic Center   34 is at   7.613810 -3.119430 -0.225541
       Atomic Center   35 is at   8.992410 -3.469910 -0.189051
       Atomic Center   36 is at   9.883540 -2.466250 -0.095961
       Atomic Center   37 is at   9.405760 -1.113270 -0.038831
       Atomic Center   38 is at   8.169800 -0.780260 -0.070361
       Atomic Center   39 is at   7.305730 -1.794880 -0.163241
       Atomic Center   40 is at   6.480590  4.063940  0.094329
       Atomic Center   41 is at   6.539020  2.578290 -0.846411
       Atomic Center   42 is at   6.476710  2.496300  0.893469
       Atomic Center   43 is at   4.387110  5.140080  0.046419
       Atomic Center   44 is at   1.939500  5.112020 -0.059851
       Atomic Center   45 is at   0.233520  1.212180  0.731909
       Atomic Center   46 is at  -2.365010  3.514070 -0.523301
       Atomic Center   47 is at  -4.711530  2.960210 -0.382221
       Atomic Center   48 is at  -6.446690  1.602780  0.864149
       Atomic Center   49 is at  -6.162410 -0.094560  1.136509
       Atomic Center   50 is at  -6.482780  1.348270 -1.358101
       Atomic Center   51 is at  -8.430670  0.223920 -1.757771
       Atomic Center   52 is at  -8.476860  0.908200 -0.151201
       Atomic Center   53 is at  -9.234970 -1.565210 -0.459041
       Atomic Center   54 is at  -8.230300 -1.213760  0.925509
       Atomic Center   55 is at  -6.501570 -2.289490  0.065559
       Atomic Center   56 is at  -8.579280 -3.667000 -1.447371
       Atomic Center   57 is at  -8.286830 -3.848970  0.292349
       Atomic Center   58 is at  -7.042760 -4.337180 -0.866531
       Atomic Center   59 is at  -7.422890 -1.782360 -2.640751
       Atomic Center   60 is at  -5.949040 -2.629320 -2.223551
       Atomic Center   61 is at  -5.740570 -0.094860 -2.750651
       Atomic Center   62 is at  -4.865500 -0.703880 -1.369541
       Atomic Center   63 is at  -1.396020 -0.257600  1.222619
       Atomic Center   64 is at   2.038360  0.843210 -0.241191
       Atomic Center   65 is at   4.495940 -3.333200 -0.366711
       Atomic Center   66 is at   9.268530 -4.505300 -0.236471
       Atomic Center   67 is at  10.940520 -2.647840 -0.063251
       Atomic Center   68 is at  10.098930 -0.297080  0.035659
      ESP Fit Center   69 is at   6.638380  3.957147  1.852133
      ESP Fit Center   70 is at   5.588380  3.957147  1.852133
      ESP Fit Center   71 is at   8.213380  3.047820  0.033479
      ESP Fit Center   72 is at   7.972837  2.071902  0.033479
      ESP Fit Center   73 is at   5.588380  3.957147 -1.785174
      ESP Fit Center   74 is at   4.607740  3.022090  2.077529
      ESP Fit Center   75 is at   5.132740  3.931417  1.796183
      ESP Fit Center   76 is at   3.557740  3.022090  1.796183
      ESP Fit Center   77 is at   5.132740  3.931417 -1.841124
      ESP Fit Center   78 is at   3.557740  3.022090 -1.841124
      ESP Fit Center   79 is at   5.132740  2.112764 -1.841124
      ESP Fit Center   80 is at   4.607740  3.022090 -2.122471
      ESP Fit Center   81 is at   3.870540  4.199550  2.092739
      ESP Fit Center   82 is at   4.920540  4.199550  1.811393
      ESP Fit Center   83 is at   4.395540  5.108877  1.811393
      ESP Fit Center   84 is at   3.345540  5.108877  1.811393
      ESP Fit Center   85 is at   3.345540  3.290224  1.811393
      ESP Fit Center   86 is at   4.920540  4.199550 -1.825914
      ESP Fit Center   87 is at   4.395540  5.108877 -1.825914
      ESP Fit Center   88 is at   3.345540  5.108877 -1.825914
      ESP Fit Center   89 is at   3.345540  3.290224 -1.825914
      ESP Fit Center   90 is at   3.870540  4.199550 -2.107261
      ESP Fit Center   91 is at   2.490190  4.191070  2.037089
      ESP Fit Center   92 is at   3.015190  5.100397  1.755743
      ESP Fit Center   93 is at   1.965190  5.100397  1.755743
      ESP Fit Center   94 is at   1.440190  4.191070  1.755743
      ESP Fit Center   95 is at   3.015190  3.281744  1.755743
      ESP Fit Center   96 is at   3.015190  5.100397 -1.881564
      ESP Fit Center   97 is at   1.965190  5.100397 -1.881564
      ESP Fit Center   98 is at   1.440190  4.191070 -1.881564
      ESP Fit Center   99 is at   3.015190  3.281744 -1.881564
      ESP Fit Center  100 is at   2.490190  4.191070 -2.162911
      ESP Fit Center  101 is at   1.805090  2.983000  1.982839
      ESP Fit Center  102 is at   2.855090  2.983000  1.701493
      ESP Fit Center  103 is at   1.280090  3.892327  1.701493
      ESP Fit Center  104 is at   2.855090  2.983000 -1.935814
      ESP Fit Center  105 is at   1.280090  3.892327 -1.935814
      ESP Fit Center  106 is at   1.280090  2.073674 -1.935814
      ESP Fit Center  107 is at   1.805090  2.983000 -2.217161
      ESP Fit Center  108 is at   0.321570  3.036750  1.926419
      ESP Fit Center  109 is at   0.846570  3.946077  1.645073
      ESP Fit Center  110 is at  -0.203430  3.946077  1.645073
      ESP Fit Center  111 is at  -0.203430  2.127424 -1.992234
      ESP Fit Center  112 is at   0.846570  2.127424 -1.992234
      ESP Fit Center  113 is at   0.321570  3.036750 -2.273581
      ESP Fit Center  114 is at   0.201230  4.834505  1.131759
      ESP Fit Center  115 is at  -0.778770  4.834505  1.131759
      ESP Fit Center  116 is at  -1.268770  3.985800  1.131759
      ESP Fit Center  117 is at   0.235758  5.600133  0.414349
      ESP Fit Center  118 is at  -0.813299  5.600133  0.414349
      ESP Fit Center  119 is at  -1.662004  4.983513  0.414349
      ESP Fit Center  120 is at  -0.288770  5.945800 -0.565651
      ESP Fit Center  121 is at  -1.268770  5.683210 -0.565651
      ESP Fit Center  122 is at   1.084463  4.983513 -1.545651
      ESP Fit Center  123 is at   0.235758  5.600133 -1.545651
      ESP Fit Center  124 is at  -0.813299  5.600133 -1.545651
      ESP Fit Center  125 is at  -1.662004  4.983513 -1.545651
      ESP Fit Center  126 is at   0.691230  3.985800 -2.263061
      ESP Fit Center  127 is at   0.201230  4.834505 -2.263061
      ESP Fit Center  128 is at  -0.778770  4.834505 -2.263061
      ESP Fit Center  129 is at  -1.268770  3.985800 -2.263061
      ESP Fit Center  130 is at  -0.778770  3.137095 -2.263061
      ESP Fit Center  131 is at  -0.288770  3.985800 -2.525651
      ESP Fit Center  132 is at  -0.336340  1.895940  2.387589
      ESP Fit Center  133 is at   0.188660  2.805267  2.106243
      ESP Fit Center  134 is at  -0.861340  2.805267  2.106243
      ESP Fit Center  135 is at  -0.595162  0.095798 -0.762411
      ESP Fit Center  136 is at   0.419156  0.241635 -0.762411
      ESP Fit Center  137 is at  -0.861340  0.986614 -1.531064
      ESP Fit Center  138 is at   0.188660  0.986614 -1.531064
      ESP Fit Center  139 is at  -0.336340  1.895940 -1.812411
      ESP Fit Center  140 is at  -1.166270  2.572777  2.136793
      ESP Fit Center  141 is at  -2.216270  2.572777  2.136793
      ESP Fit Center  142 is at  -2.216270  0.754124 -1.500514
      ESP Fit Center  143 is at  -1.166270  0.754124 -1.500514
      ESP Fit Center  144 is at  -1.691270  1.663450 -1.781861
      ESP Fit Center  145 is at  -2.658450  2.562270  1.960969
      ESP Fit Center  146 is at  -2.133450  3.471597  1.679623
      ESP Fit Center  147 is at  -3.183450  3.471597  1.679623
      ESP Fit Center  148 is at  -2.917272  4.362412  0.910969
      ESP Fit Center  149 is at  -2.917272  0.762128 -1.189031
      ESP Fit Center  150 is at  -1.608450  2.562270 -1.957684
      ESP Fit Center  151 is at  -3.183450  1.652944 -1.957684
      ESP Fit Center  152 is at  -2.133450  1.652944 -1.957684
      ESP Fit Center  153 is at  -2.658450  2.562270 -2.239031
      ESP Fit Center  154 is at  -3.468890  3.132387  1.758923
      ESP Fit Center  155 is at  -4.518890  3.132387  1.758923
      ESP Fit Center  156 is at  -4.252712  4.023202  0.990269
      ESP Fit Center  157 is at  -5.043890  2.223060 -1.878384
      ESP Fit Center  158 is at  -4.518890  1.313734 -1.878384
      ESP Fit Center  159 is at  -3.468890  1.313734 -1.878384
      ESP Fit Center  160 is at  -3.993890  2.223060 -2.159731
      ESP Fit Center  161 is at  -3.909220  1.912747  2.255633
      ESP Fit Center  162 is at  -4.959220  1.912747  2.255633
      ESP Fit Center  163 is at  -5.908360  0.736490  2.605389
      ESP Fit Center  164 is at  -5.383360  1.645817  2.324043
      ESP Fit Center  165 is at -10.046368  0.656423 -0.766101
      ESP Fit Center  166 is at  -8.266212  1.954002 -1.816101
      ESP Fit Center  167 is at -10.000345 -0.715776  0.896459
      ESP Fit Center  168 is at  -9.446325 -2.602596  0.896459
      ESP Fit Center  169 is at  -6.786540 -3.634550  1.153603
      ESP Fit Center  170 is at  -9.408413 -5.027107 -0.665051
      ESP Fit Center  171 is at  -8.581211 -5.598084 -0.665051
      ESP Fit Center  172 is at  -8.095362 -5.434692 -1.715051
      ESP Fit Center  173 is at  -5.577370 -1.848220 -3.731374
      ESP Fit Center  174 is at  -4.654604  1.188176 -1.772511
      ESP Fit Center  175 is at  -4.028887 -0.540090 -2.822511
      ESP Fit Center  176 is at  -4.317592 -1.523328 -2.822511
      ESP Fit Center  177 is at  -2.932970  1.019947  2.726143
      ESP Fit Center  178 is at  -3.982970  1.019947  2.726143
      ESP Fit Center  179 is at  -2.932970 -0.798706 -0.911164
      ESP Fit Center  180 is at  -2.831880 -1.952980  3.747089
      ESP Fit Center  181 is at  -1.720966 -1.952980  3.386131
      ESP Fit Center  182 is at  -2.276423 -0.990900  3.386131
      ESP Fit Center  183 is at  -3.387337 -2.915060  3.386131
      ESP Fit Center  184 is at  -2.276423 -2.915060  3.386131
      ESP Fit Center  185 is at  -1.034383 -1.952980  2.441131
      ESP Fit Center  186 is at  -3.387337 -3.662501  2.441131
      ESP Fit Center  187 is at  -2.276423 -3.662501  2.441131
      ESP Fit Center  188 is at  -1.377675 -3.009522  2.441131
      ESP Fit Center  189 is at  -1.034383 -1.952980  1.273047
      ESP Fit Center  190 is at  -3.387337 -3.662501  1.273047
      ESP Fit Center  191 is at  -2.276423 -3.662501  1.273047
      ESP Fit Center  192 is at  -1.377675 -3.009522  1.273047
      ESP Fit Center  193 is at  -1.720966 -1.952980  0.328047
      ESP Fit Center  194 is at  -2.276423 -2.915060  0.328047
      ESP Fit Center  195 is at  -5.140277 -2.907669  2.169751
      ESP Fit Center  196 is at  -5.140277 -3.655111  1.224751
      ESP Fit Center  197 is at  -4.029363 -3.655111  1.224751
      ESP Fit Center  198 is at  -5.140277 -3.655111  0.056667
      ESP Fit Center  199 is at  -4.029363 -3.655111  0.056667
      ESP Fit Center  200 is at  -3.130615 -3.002132  0.056667
      ESP Fit Center  201 is at  -3.473906 -1.945590 -0.888333
      ESP Fit Center  202 is at  -4.029363 -2.907669 -0.888333
      ESP Fit Center  203 is at  -4.627050 -1.066030  4.466379
      ESP Fit Center  204 is at  -3.516136 -1.066030  4.105421
      ESP Fit Center  205 is at  -4.071593 -0.103950  4.105421
      ESP Fit Center  206 is at  -5.182507 -0.103950  4.105421
      ESP Fit Center  207 is at  -5.737964 -1.066030  4.105421
      ESP Fit Center  208 is at  -5.182507 -2.028109  4.105421
      ESP Fit Center  209 is at  -4.071593 -2.028109  4.105421
      ESP Fit Center  210 is at  -3.172845 -0.009488  3.160421
      ESP Fit Center  211 is at  -4.071593  0.643491  3.160421
      ESP Fit Center  212 is at  -5.182507  0.643491  3.160421
      ESP Fit Center  213 is at  -6.081256 -0.009488  3.160421
      ESP Fit Center  214 is at  -6.424547 -1.066030  3.160421
      ESP Fit Center  215 is at  -6.081256 -2.122572  3.160421
      ESP Fit Center  216 is at  -5.182507 -2.775551  3.160421
      ESP Fit Center  217 is at  -4.071593 -2.775551  3.160421
      ESP Fit Center  218 is at  -6.081256 -2.122572  1.992337
      ESP Fit Center  219 is at  -2.124200  0.435890  2.948589
      ESP Fit Center  220 is at  -1.599200  1.345217  2.667243
      ESP Fit Center  221 is at  -2.649200  1.345217  2.667243
      ESP Fit Center  222 is at  -2.383022 -1.364252 -0.201411
      ESP Fit Center  223 is at  -1.368704 -1.218415 -0.201411
      ESP Fit Center  224 is at  -2.649200 -0.473436 -0.970064
      ESP Fit Center  225 is at  -1.599200 -0.473436 -0.970064
      ESP Fit Center  226 is at   2.526830  1.795850  1.955809
      ESP Fit Center  227 is at   3.051830  2.705177  1.674463
      ESP Fit Center  228 is at   2.001830  0.886524  1.674463
      ESP Fit Center  229 is at   3.051830  0.886524  1.674463
      ESP Fit Center  230 is at   3.051830  2.705177 -1.962844
      ESP Fit Center  231 is at   1.476830  1.795850 -1.962844
      ESP Fit Center  232 is at   2.001830  0.886524 -1.962844
      ESP Fit Center  233 is at   3.051830  0.886524 -1.962844
      ESP Fit Center  234 is at   2.526830  1.795850 -2.244191
      ESP Fit Center  235 is at   3.914360  1.803210  1.999579
      ESP Fit Center  236 is at   4.964360  1.803210  1.718233
      ESP Fit Center  237 is at   3.389360  2.712537  1.718233
      ESP Fit Center  238 is at   3.389360  0.893884  1.718233
      ESP Fit Center  239 is at   4.964360  1.803210 -1.919074
      ESP Fit Center  240 is at   3.389360  2.712537 -1.919074
      ESP Fit Center  241 is at   3.389360  0.893884 -1.919074
      ESP Fit Center  242 is at   3.914360  1.803210 -2.200421
      ESP Fit Center  243 is at   4.626710  0.556120  1.958329
      ESP Fit Center  244 is at   5.676710  0.556120  1.676983
      ESP Fit Center  245 is at   5.151710  1.465447  1.676983
      ESP Fit Center  246 is at   3.576710  0.556120  1.676983
      ESP Fit Center  247 is at   4.101710 -0.353206  1.676983
      ESP Fit Center  248 is at   3.435745 -0.818326  0.908329
      ESP Fit Center  249 is at   3.054837 -0.836437 -0.141671
      ESP Fit Center  250 is at   5.676710  0.556120 -1.960324
      ESP Fit Center  251 is at   5.151710  1.465447 -1.960324
      ESP Fit Center  252 is at   3.576710  0.556120 -1.960324
      ESP Fit Center  253 is at   4.101710 -0.353206 -1.960324
      ESP Fit Center  254 is at   4.626710  0.556120 -2.241671
      ESP Fit Center  255 is at   5.227350 -0.472440  1.925539
      ESP Fit Center  256 is at   6.277350 -0.472440  1.644193
      ESP Fit Center  257 is at   5.752350  0.436887  1.644193
      ESP Fit Center  258 is at   4.177350 -0.472440  1.644193
      ESP Fit Center  259 is at   4.702350 -1.381766  1.644193
      ESP Fit Center  260 is at   6.757298  0.510798  0.875539
      ESP Fit Center  261 is at   3.482365 -0.984814  0.875539
      ESP Fit Center  262 is at   4.036385 -1.846886  0.875539
      ESP Fit Center  263 is at   3.188372 -0.975003 -0.174461
      ESP Fit Center  264 is at   3.655477 -1.864997 -0.174461
      ESP Fit Center  265 is at   6.757298  0.510798 -1.224461
      ESP Fit Center  266 is at   3.482365 -0.984814 -1.224461
      ESP Fit Center  267 is at   6.277350 -0.472440 -1.993114
      ESP Fit Center  268 is at   5.752350  0.436887 -1.993114
      ESP Fit Center  269 is at   4.177350 -0.472440 -1.993114
      ESP Fit Center  270 is at   4.702350 -1.381766 -1.993114
      ESP Fit Center  271 is at   5.227350 -0.472440 -2.274461
      ESP Fit Center  272 is at   5.935620 -1.698960  1.885899
      ESP Fit Center  273 is at   6.460620 -0.789633  1.604553
      ESP Fit Center  274 is at   4.885620 -1.698960  1.604553
      ESP Fit Center  275 is at   6.460620 -2.608286  1.604553
      ESP Fit Center  276 is at   6.460620 -0.789633 -2.032754
      ESP Fit Center  277 is at   4.885620 -1.698960 -2.032754
      ESP Fit Center  278 is at   5.935620 -1.698960 -2.314101
      ESP Fit Center  279 is at   5.510870 -2.998260  1.794879
      ESP Fit Center  280 is at   4.460870 -2.998260  1.513533
      ESP Fit Center  281 is at   4.985870 -3.907586  1.513533
      ESP Fit Center  282 is at   4.985870 -2.088933 -2.123774
      ESP Fit Center  283 is at   4.460870 -2.998260 -2.123774
      ESP Fit Center  284 is at   4.985870 -3.907586 -2.123774
      ESP Fit Center  285 is at   5.510870 -2.998260 -2.405121
      ESP Fit Center  286 is at   6.539340 -3.863090  1.788339
      ESP Fit Center  287 is at   6.014340 -4.772416  1.506993
      ESP Fit Center  288 is at   7.064340 -4.772416  1.506993
      ESP Fit Center  289 is at   5.348375 -5.237536  0.738339
      ESP Fit Center  290 is at   6.280518 -5.663232  0.738339
      ESP Fit Center  291 is at   7.294836 -5.517395  0.738339
      ESP Fit Center  292 is at   4.967467 -5.255647 -0.311661
      ESP Fit Center  293 is at   5.794669 -5.826624 -0.311661
      ESP Fit Center  294 is at   6.792467 -5.947778 -0.311661
      ESP Fit Center  295 is at   7.732276 -5.591356 -0.311661
      ESP Fit Center  296 is at   5.348375 -5.237536 -1.361661
      ESP Fit Center  297 is at   6.280518 -5.663232 -1.361661
      ESP Fit Center  298 is at   7.294836 -5.517395 -1.361661
      ESP Fit Center  299 is at   6.014340 -4.772416 -2.130314
      ESP Fit Center  300 is at   7.064340 -4.772416 -2.130314
      ESP Fit Center  301 is at   6.539340 -3.863090 -2.411661
      ESP Fit Center  302 is at   7.613810 -3.119430  1.874459
      ESP Fit Center  303 is at   8.138810 -4.028757 -2.044194
      ESP Fit Center  304 is at   7.613810 -3.119430 -2.325541
      ESP Fit Center  305 is at   8.992410 -3.469910  1.910949
      ESP Fit Center  306 is at   8.467410 -2.560583  1.629603
      ESP Fit Center  307 is at   8.467410 -4.379237  1.629603
      ESP Fit Center  308 is at   9.517410 -4.379237  1.629603
      ESP Fit Center  309 is at  10.042410 -3.469910 -2.007704
      ESP Fit Center  310 is at   8.467410 -4.379237 -2.007704
      ESP Fit Center  311 is at   9.517410 -4.379237 -2.007704
      ESP Fit Center  312 is at   8.992410 -3.469910 -2.289051
      ESP Fit Center  313 is at   9.883540 -2.466250  2.004039
      ESP Fit Center  314 is at  10.933540 -2.466250  1.722693
      ESP Fit Center  315 is at   8.833540 -2.466250  1.722693
      ESP Fit Center  316 is at  10.408540 -3.375577  1.722693
      ESP Fit Center  317 is at  10.639036 -4.120555  0.954039
      ESP Fit Center  318 is at  10.933540 -2.466250 -1.914614
      ESP Fit Center  319 is at  10.408540 -1.556923 -1.914614
      ESP Fit Center  320 is at  10.408540 -3.375577 -1.914614
      ESP Fit Center  321 is at   9.883540 -2.466250 -2.195961
      ESP Fit Center  322 is at   9.405760 -1.113270  2.061169
      ESP Fit Center  323 is at  10.455760 -1.113270  1.779823
      ESP Fit Center  324 is at   9.930760 -0.203943  1.779823
      ESP Fit Center  325 is at   8.880760 -2.022597  1.779823
      ESP Fit Center  326 is at  11.224413 -1.113270  1.011169
      ESP Fit Center  327 is at  11.224413 -1.113270 -1.088831
      ESP Fit Center  328 is at  10.455760 -1.113270 -1.857484
      ESP Fit Center  329 is at   9.930760 -0.203943 -1.857484
      ESP Fit Center  330 is at   9.405760 -1.113270 -2.138831
      ESP Fit Center  331 is at   8.169800 -0.780260  2.029639
      ESP Fit Center  332 is at   8.694800  0.129067  1.748293
      ESP Fit Center  333 is at   7.644800  0.129067  1.748293
      ESP Fit Center  334 is at   7.119800 -0.780260  1.748293
      ESP Fit Center  335 is at   8.925296  0.874045  0.979639
      ESP Fit Center  336 is at   7.910978  1.019882  0.979639
      ESP Fit Center  337 is at   6.978835  0.594187  0.979639
      ESP Fit Center  338 is at   8.422927  1.304429 -0.070361
      ESP Fit Center  339 is at   7.425129  1.183274 -0.070361
      ESP Fit Center  340 is at   8.925296  0.874045 -1.120361
      ESP Fit Center  341 is at   7.910978  1.019882 -1.120361
      ESP Fit Center  342 is at   6.978835  0.594187 -1.120361
      ESP Fit Center  343 is at   8.694800  0.129067 -1.889014
      ESP Fit Center  344 is at   7.644800  0.129067 -1.889014
      ESP Fit Center  345 is at   8.169800 -0.780260 -2.170361
      ESP Fit Center  346 is at   7.305730 -1.794880  1.936759
      ESP Fit Center  347 is at   6.780730 -0.885553  1.655413
      ESP Fit Center  348 is at   8.355730 -1.794880 -1.981894
      ESP Fit Center  349 is at   6.780730 -0.885553 -1.981894
      ESP Fit Center  350 is at   7.305730 -1.794880 -2.263241
      ESP Fit Center  351 is at   7.468069  4.063940  1.453478
      ESP Fit Center  352 is at   6.785738  5.003089  1.453478
      ESP Fit Center  353 is at   5.681702  4.644366  1.453478
      ESP Fit Center  354 is at   8.078365  4.063940  0.613478
      ESP Fit Center  355 is at   7.704556  5.090970  0.613478
      ESP Fit Center  356 is at   6.758041  5.637441  0.613478
      ESP Fit Center  357 is at   8.078365  4.063940 -0.424819
      ESP Fit Center  358 is at   7.704556  5.090970 -0.424819
      ESP Fit Center  359 is at   6.758041  5.637441 -0.424819
      ESP Fit Center  360 is at   7.468069  4.063940 -1.264819
      ESP Fit Center  361 is at   6.785738  5.003089 -1.264819
      ESP Fit Center  362 is at   5.681702  4.644366 -1.264819
      ESP Fit Center  363 is at   8.136795  2.578290 -0.327262
      ESP Fit Center  364 is at   6.816470  1.004789 -0.327262
      ESP Fit Center  365 is at   7.762986  1.551260 -0.327262
      ESP Fit Center  366 is at   8.136795  2.578290 -1.365559
      ESP Fit Center  367 is at   7.762986  3.605320 -1.365559
      ESP Fit Center  368 is at   6.816470  1.004789 -1.365559
      ESP Fit Center  369 is at   7.762986  1.551260 -1.365559
      ESP Fit Center  370 is at   7.526499  2.578290 -2.205559
      ESP Fit Center  371 is at   6.844168  3.517439 -2.205559
      ESP Fit Center  372 is at   5.740132  3.158716 -2.205559
      ESP Fit Center  373 is at   5.740132  1.997864 -2.205559
      ESP Fit Center  374 is at   6.844168  1.639142 -2.205559
      ESP Fit Center  375 is at   6.539020  2.578290 -2.526411
      ESP Fit Center  376 is at   6.476710  2.496300  2.573469
      ESP Fit Center  377 is at   7.464189  2.496300  2.252618
      ESP Fit Center  378 is at   6.781858  3.435449  2.252618
      ESP Fit Center  379 is at   5.677822  3.076726  2.252618
      ESP Fit Center  380 is at   5.677822  1.915874  2.252618
      ESP Fit Center  381 is at   6.781858  1.557152  2.252618
      ESP Fit Center  382 is at   8.074485  2.496300  1.412618
      ESP Fit Center  383 is at   7.700676  3.523330  1.412618
      ESP Fit Center  384 is at   6.754160  0.922799  1.412618
      ESP Fit Center  385 is at   7.700676  1.469270  1.412618
      ESP Fit Center  386 is at   6.754160  0.922799  0.374321
      ESP Fit Center  387 is at   7.700676  1.469270  0.374321
      ESP Fit Center  388 is at   5.374589  5.140080  1.405568
      ESP Fit Center  389 is at   4.692258  6.079229  1.405568
      ESP Fit Center  390 is at   5.611076  6.167110  0.565568
      ESP Fit Center  391 is at   4.664561  6.713581  0.565568
      ESP Fit Center  392 is at   3.588222  6.523794  0.565568
      ESP Fit Center  393 is at   5.611076  6.167110 -0.472729
      ESP Fit Center  394 is at   4.664561  6.713581 -0.472729
      ESP Fit Center  395 is at   3.588222  6.523794 -0.472729
      ESP Fit Center  396 is at   5.374589  5.140080 -1.312729
      ESP Fit Center  397 is at   4.692258  6.079229 -1.312729
      ESP Fit Center  398 is at   2.244648  6.051169  1.299298
      ESP Fit Center  399 is at   1.140612  5.692446  1.299298
      ESP Fit Center  400 is at   2.216951  6.685521  0.459298
      ESP Fit Center  401 is at   1.140612  6.495734  0.459298
      ESP Fit Center  402 is at   0.438083  5.658491  0.459298
      ESP Fit Center  403 is at   3.163466  6.139050 -0.578999
      ESP Fit Center  404 is at   2.216951  6.685521 -0.578999
      ESP Fit Center  405 is at   1.140612  6.495734 -0.578999
      ESP Fit Center  406 is at   2.244648  6.051169 -1.418999
      ESP Fit Center  407 is at   1.140612  5.692446 -1.418999
      ESP Fit Center  408 is at   0.233520  1.212180  2.411909
      ESP Fit Center  409 is at   1.220999  1.212180  2.091058
      ESP Fit Center  410 is at   0.538668  0.273032  2.091058
      ESP Fit Center  411 is at   0.510970 -0.361321  1.251058
      ESP Fit Center  412 is at   1.457486  0.185150  1.251058
      ESP Fit Center  413 is at   0.510970 -0.361321  0.212761
      ESP Fit Center  414 is at  -2.059862  4.453219  0.835848
      ESP Fit Center  415 is at  -2.087559  5.087571 -0.004152
      ESP Fit Center  416 is at  -3.163898  4.897784 -0.004152
      ESP Fit Center  417 is at  -2.087559  5.087571 -1.042449
      ESP Fit Center  418 is at  -3.163898  4.897784 -1.042449
      ESP Fit Center  419 is at  -2.059862  4.453219 -1.882449
      ESP Fit Center  420 is at  -3.163898  4.094496 -1.882449
      ESP Fit Center  421 is at  -2.365010  3.514070 -2.203301
      ESP Fit Center  422 is at  -5.510418  3.540636  0.976928
      ESP Fit Center  423 is at  -4.434079  4.533712  0.136928
      ESP Fit Center  424 is at  -5.510418  4.343924  0.136928
      ESP Fit Center  425 is at  -6.212948  3.506682  0.136928
      ESP Fit Center  426 is at  -4.434079  4.533712 -0.901369
      ESP Fit Center  427 is at  -5.510418  4.343924 -0.901369
      ESP Fit Center  428 is at  -6.212948  3.506682 -0.901369
      ESP Fit Center  429 is at  -4.406382  3.899359 -1.741369
      ESP Fit Center  430 is at  -5.510418  3.540636 -1.741369
      ESP Fit Center  431 is at  -4.711530  2.960210 -2.062221
      ESP Fit Center  432 is at  -6.446690  1.602780  2.544149
      ESP Fit Center  433 is at  -6.141542  2.541929  2.223298
      ESP Fit Center  434 is at  -7.245578  2.183206  2.223298
      ESP Fit Center  435 is at  -7.245578  1.022355  2.223298
      ESP Fit Center  436 is at  -6.169240  3.176282  1.383298
      ESP Fit Center  437 is at  -7.245578  2.986494  1.383298
      ESP Fit Center  438 is at  -7.948108  2.149252  1.383298
      ESP Fit Center  439 is at  -7.245578  2.986494  0.345001
[...]
 1981 Fit       0.095108
 1982 Fit       0.094679
 1983 Fit       0.116872
 1984 Fit       0.104835
 1985 Fit       0.117220
 1986 Fit       0.097184
 1987 Fit       0.101047
 1988 Fit       0.118682
 1989 Fit       0.104924
 1990 Fit       0.121896
 1991 Fit       0.128684
 1992 Fit       0.116720
 1993 Fit       0.126069
 1994 Fit       0.134476
 1995 Fit       0.123465
 1996 Fit       0.116684
 1997 Fit       0.119452
 1998 Fit       0.105675
 1999 Fit       0.111841
 2000 Fit       0.099437
 2001 Fit       0.107791
 2002 Fit       0.094801
 2003 Fit       0.097953
 2004 Fit       0.111140
 2005 Fit       0.092294
 2006 Fit       0.093364
 2007 Fit       0.104117
 2008 Fit       0.091356
 2009 Fit       0.093349
 2010 Fit       0.103540
 2011 Fit       0.122333
 2012 Fit       0.101975
 2013 Fit       0.096558
 2014 Fit       0.104776
 2015 Fit       0.121925
 2016 Fit       0.127526
 2017 Fit       0.108942
 2018 Fit       0.146615
 2019 Fit       0.140737
 2020 Fit       0.135021
 2021 Fit       0.141537
 2022 Fit       0.132704
 2023 Fit       0.163096
 2024 Fit       0.149816
 2025 Fit       0.156536
 2026 Fit       0.143847
 2027 Fit       0.145767
 2028 Fit       0.150561
 2029 Fit       0.142509
 2030 Fit       0.167577
 2031 Fit       0.162917
 2032 Fit       0.150789
 2033 Fit       0.134577
 2034 Fit       0.141147
 2035 Fit       0.137677
 2036 Fit       0.200247
 2037 Fit       0.147635
 2038 Fit       0.144541
 2039 Fit       0.163675
 2040 Fit       0.187956
 2041 Fit       0.166327
 2042 Fit       0.163664
 2043 Fit       0.156353
 2044 Fit       0.166938
 2045 Fit       0.157268
 2046 Fit       0.175826
 2047 Fit       0.156367
 2048 Fit       0.172755
 2049 Fit       0.197628
 2050 Fit       0.202596
 2051 Fit       0.200021
 2052 Fit       0.179205
 2053 Fit       0.186109
 2054 Fit       0.194879
 2055 Fit       0.205667
 2056 Fit       0.218446
 2057 Fit       0.226369
 2058 Fit       0.212145
 2059 Fit       0.216606
 2060 Fit       0.236991
 2061 Fit       0.220496
 2062 Fit       0.222880
 2063 Fit       0.213905
 2064 Fit       0.220398
 2065 Fit       0.212832
 2066 Fit       0.187339
 2067 Fit       0.191540
 2068 Fit       0.203145
 2069 Fit       0.191373
 2070 Fit       0.185252
 2071 Fit       0.183432
 2072 Fit       0.186413
 2073 Fit       0.185587
 2074 Fit       0.183879
 2075 Fit       0.188927
 2076 Fit       0.196874
 2077 Fit       0.217883
 2078 Fit       0.214602
 2079 Fit       0.217989
 2080 Fit       0.212116
 2081 Fit       0.217572
 2082 Fit       0.208338
 2083 Fit       0.208057
 2084 Fit       0.214166
 2085 Fit       0.216418
 2086 Fit       0.161605
 2087 Fit       0.165145
 2088 Fit       0.209663
 2089 Fit       0.163056
 2090 Fit       0.194887
 2091 Fit       0.145536
 2092 Fit       0.141462
 2093 Fit       0.150453
 2094 Fit       0.146811
 2095 Fit       0.139157
 2096 Fit       0.143173
 2097 Fit       0.153762
 2098 Fit       0.145451
 2099 Fit       0.137532
 2100 Fit       0.136848
 2101 Fit       0.151024
 2102 Fit       0.173215
 2103 Fit       0.154199
 2104 Fit       0.142272
 2105 Fit       0.137734
 2106 Fit       0.140311
 2107 Fit       0.173218
 2108 Fit       0.155199
 2109 Fit       0.145359
 2110 Fit       0.142781
 2111 Fit       0.147697
 2112 Fit       0.176796
 2113 Fit       0.158981
 2114 Fit       0.151970
 2115 Fit       0.155474
 2116 Fit       0.169229
 2117 Fit       0.166461
 2118 Fit       0.188418
 2119 Fit       0.200274
 2120 Fit       0.179464
 2121 Fit       0.199878
 2122 Fit       0.180710
 2123 Fit       0.201882
 2124 Fit       0.185986
 2125 Fit       0.208158
 2126 Fit       0.213718
 2127 Fit       0.201998
 2128 Fit       0.144963
 2129 Fit       0.143900
 2130 Fit       0.146567
 2131 Fit       0.151279
 2132 Fit       0.153511
 2133 Fit       0.149025
 2134 Fit       0.143911
 2135 Fit       0.150434
 2136 Fit       0.152742
 2137 Fit       0.154129
 2138 Fit       0.159279
 2139 Fit       0.166487
 2140 Fit       0.170822
 2141 Fit       0.169335
 2142 Fit       0.162474
 2143 Fit       0.154160
 2144 Fit       0.148267
 2145 Fit       0.167936
 2146 Fit       0.178418
 2147 Fit       0.190880
 2148 Fit       0.199069
 2149 Fit       0.201259
 2150 Fit       0.195203
 2151 Fit       0.183271
 2152 Fit       0.170521
 2153 Fit       0.224451
 2154 Fit       0.202412
 2155 Fit       0.158659
 2156 Fit       0.155598
 2157 Fit       0.152295
 2158 Fit       0.157637
 2159 Fit       0.179515
 2160 Fit       0.171572
 2161 Fit       0.202301
 2162 Fit       0.178567
 2163 Fit       0.168939
 2164 Fit       0.180127
 2165 Fit       0.114713
 2166 Fit       0.104108
 2167 Fit       0.131332
 2168 Fit       0.110591
 2169 Fit       0.132002
 2170 Fit       0.119390
 2171 Fit       0.096990
 2172 Fit       0.117848
 2173 Fit       0.115826
 2174 Fit       0.102773
 2175 Fit       0.104690
 2176 Fit       0.098707
 2177 Fit       0.094019
 2178 Fit       0.100984
 2179 Fit       0.104902
 2180 Fit       0.089539
 2181 Fit       0.094972
 2182 Fit       0.098660
 2183 Fit       0.093526
 2184 Fit       0.090808
 2185 Fit       0.084460
 2186 Fit       0.091853
 2187 Fit       0.102073
 2188 Fit       0.093865
 2189 Fit       0.104818
 2190 Fit       0.126221
 2191 Fit       0.081398
 2192 Fit       0.087346
 2193 Fit       0.096478
 2194 Fit       0.090277
 2195 Fit       0.086918
 2196 Fit       0.084681
 2197 Fit       0.080671
 2198 Fit       0.083371
 2199 Fit       0.092594
 2200 Fit       0.087960
 2201 Fit       0.104568
 2202 Fit       0.096252
 2203 Fit       0.111626
 2204 Fit       0.078026
 2205 Fit       0.100924
 2206 Fit       0.079378
 2207 Fit       0.080901
 2208 Fit       0.089589
 2209 Fit       0.086205
 2210 Fit       0.082617
 2211 Fit       0.081604
 2212 Fit       0.080491
 2213 Fit       0.086300
 2214 Fit       0.079477
 2215 Fit       0.079333
 2216 Fit       0.084798
 2217 Fit       0.079775
 2218 Fit       0.080219
 2219 Fit       0.088367
 2220 Fit       0.080231
 2221 Fit       0.100586
 2222 Fit       0.097623
 2223 Fit       0.085899
 2224 Fit       0.082282
 2225 Fit       0.082568
 2226 Fit       0.099250
 2227 Fit       0.085896
 2228 Fit       0.083970
 2229 Fit       0.087489
 2230 Fit       0.079271
 2231 Fit       0.078667
 2232 Fit       0.073113
 2233 Fit       0.068944
 2234 Fit       0.068390
 2235 Fit       0.069359
 2236 Fit       0.062471
 2237 Fit       0.064721
 2238 Fit       0.077712
 2239 Fit       0.064664
 2240 Fit       0.058377
 2241 Fit       0.061127
 2242 Fit       0.068115
 2243 Fit       0.058000
 2244 Fit       0.056231
 2245 Fit       0.064915
 2246 Fit       0.068019
 2247 Fit       0.057700
 2248 Fit       0.055741
 2249 Fit       0.064107
 2250 Fit       0.077799
 2251 Fit       0.064079
 2252 Fit       0.057274
 2253 Fit       0.059430
 2254 Fit       0.068439
 2255 Fit       0.060815
 2256 Fit       0.062242
 2257 Fit       0.067045
 2258 Fit       0.065610
 2259 Fit       0.070378
 2260 Fit       0.078483
 2261 Fit       0.080021
 2262 Fit       0.073456
 2263 Fit       0.075707
 2264 Fit       0.077631
 2265 Fit       0.081226
 2266 Fit       0.075637
 2267 Fit       0.076928
 2268 Fit       0.075409
 2269 Fit       0.078708
 2270 Fit       0.080221
 2271 Fit       0.074269
 2272 Fit       0.078627
 2273 Fit       0.079571
 2274 Fit       0.077045
 2275 Fit       0.073834
 2276 Fit       0.076245
 2277 Fit       0.076414
 2278 Fit       0.079132
 2279 Fit       0.080185
 2280 Fit       0.080572
 2281 Fit       0.078102
 2282 Fit       0.083292
 2283 Fit       0.086016
 2284 Fit       0.080039
 2285 Fit       0.081172
 2286 Fit       0.084944
 2287 Fit       0.081659
 2288 Fit       0.083598
 2289 Fit       0.080502
 2290 Fit       0.078714
 2291 Fit       0.080402
 2292 Fit       0.077564
 2293 Fit       0.078000
 2294 Fit       0.080351
 2295 Fit       0.082336
 2296 Fit       0.081488
 2297 Fit       0.080967
 2298 Fit       0.086154
 2299 Fit       0.085794
 2300 Fit       0.084115
 2301 Fit       0.084020
 2302 Fit       0.082164
 2303 Fit       0.081179
 2304 Fit       0.080181
 2305 Fit       0.079732
 2306 Fit       0.078669
 2307 Fit       0.078159
 2308 Fit       0.077807
 2309 Fit       0.079396
 2310 Fit       0.079537
 2311 Fit       0.081349
 2312 Fit       0.079960
 2313 Fit       0.077912
 2314 Fit       0.078023
 2315 Fit       0.077200
 2316 Fit       0.077102
 2317 Fit       0.078390
 2318 Fit       0.080489
 2319 Fit       0.080097
 2320 Fit       0.079412
 2321 Fit       0.080626
 2322 Fit       0.079153
 2323 Fit       0.079200
 2324 Fit       0.088723
 2325 Fit       0.085185
 2326 Fit       0.088538
 2327 Fit       0.095356
 2328 Fit       0.083890
 2329 Fit       0.086095
 2330 Fit       0.091194
 2331 Fit       0.083814
 2332 Fit       0.085995
 2333 Fit       0.091087
 2334 Fit       0.084968
 2335 Fit       0.088229
 2336 Fit       0.094995
 2337 Fit       0.082586
 2338 Fit       0.082560
 2339 Fit       0.083802
 2340 Fit       0.080239
 2341 Fit       0.083995
 2342 Fit       0.085919
 2343 Fit       0.089242
 2344 Fit       0.090313
 2345 Fit       0.086515
 2346 Fit       0.083680
 2347 Fit       0.086712
 2348 Fit       0.088341
 2349 Fit       0.085079
 2350 Fit       0.087097
 2351 Fit       0.091049
 2352 Fit       0.092828
 2353 Fit       0.089120
 2354 Fit       0.085356
 2355 Fit       0.083370
 2356 Fit       0.084641
 2357 Fit       0.079969
 2358 Fit       0.081512
 2359 Fit       0.083165
 2360 Fit       0.095256
 2361 Fit       0.095910
 2362 Fit       0.095008
 2363 Fit       0.097431
 2364 Fit       0.094844
 2365 Fit       0.095269
 2366 Fit       0.098717
 2367 Fit       0.094471
 2368 Fit       0.094900
 2369 Fit       0.098272
 2370 Fit       0.094691
 2371 Fit       0.093901
 2372 Fit       0.096101
 2373 Fit       0.105837
 2374 Fit       0.102834
 2375 Fit       0.102570
 2376 Fit       0.104753
 2377 Fit       0.101609
 2378 Fit       0.100987
 2379 Fit       0.101192
 2380 Fit       0.100234
 2381 Fit       0.099067
 2382 Fit       0.097351
 2383 Fit       0.098849
 2384 Fit       0.097266
 2385 Fit       0.093992
 2386 Fit       0.094500
 2387 Fit       0.142455
 2388 Fit       0.155420
 2389 Fit       0.160332
 2390 Fit       0.132607
 2391 Fit       0.132606
 2392 Fit       0.154528
 2393 Fit       0.132590
 2394 Fit       0.155698
 2395 Fit       0.131782
 2396 Fit       0.155877
 2397 Fit       0.147172
 2398 Fit       0.166839
 2399 Fit       0.184733
 2400 Fit       0.159873
 2401 Fit       0.167236
 2402 Fit       0.183703
 2403 Fit       0.213327
 2404 Fit       0.162701
 2405 Fit       0.169970
 2406 Fit       0.187087
 2407 Fit       0.218561
 2408 Fit       0.175094
 2409 Fit       0.195067
 2410 Fit       0.196450
 2411 Fit       0.187630
 2412 Fit       0.191428
 2413 Fit       0.205132
 2414 Fit       0.186030
 2415 Fit       0.188338
 2416 Fit       0.196067
 2417 Fit       0.211075
 2418 Fit       0.232138
 2419 Fit       0.196734
 2420 Fit       0.204898
 2421 Fit       0.214279
 2422 Fit       0.223428
 2423 Fit       0.212824
 2424 Fit       0.234631
 2425 Fit       0.242876
 2426 Fit       0.225525
 2427 Fit       0.233114
 2428 Fit       0.223758
 2429 Fit       0.223822
 2430 Fit       0.232252
 2431 Fit       0.232829
 2432 Fit       0.235057
 2433 Fit       0.212885
 2434 Fit       0.209886
 2435 Fit       0.216444
 2436 Fit       0.222539
 2437 Fit       0.209598
 2438 Fit       0.208732
 2439 Fit       0.219079
 2440 Fit       0.236952
 2441 Fit       0.217309
 2442 Fit       0.217405
 2443 Fit       0.232023
 2444 Fit       0.236121
 2445 Fit       0.216545
 2446 Fit       0.221601
 2447 Fit       0.214678
 2448 Fit       0.204931
 2449 Fit       0.208059
 2450 Fit       0.211163
 2451 Fit       0.202232
 2452 Fit       0.203037
 2453 Fit       0.213995
 2454 Fit       0.241884
 2455 Fit       0.216679
 2456 Fit       0.206603
 2457 Fit       0.207478
 2458 Fit       0.212204
 2459 Fit       0.208902
 2460 Fit       0.220540
 2461 Fit       0.211431
 2462 Fit       0.203463
 2463 Fit       0.205788
 2464 Fit       0.213758
 2465 Fit       0.205793
 2466 Fit       0.208569
 2467 Fit       0.219353
 2468 Fit       0.216625
 2469 Fit       0.236386
 2470 Fit       0.210911
 2471 Fit       0.222690
 2472 Fit       0.212220
 2473 Fit       0.205853
 2474 Fit       0.210338
 2475 Fit       0.219052
 2476 Fit       0.232897
 2477 Fit       0.218650
 2478 Fit       0.209906
 2479 Fit       0.209079
 2480 Fit       0.216675
 2481 Fit       0.239886
 2482 Fit       0.242161
 2483 Fit       0.208949
 2484 Fit       0.195516
 2485 Fit       0.201799
 2486 Fit       0.189647
 2487 Fit       0.186018
 2488 Fit       0.241269
 2489 Fit       0.210931
 2490 Fit       0.193886
 2491 Fit       0.187700
 2492 Fit       0.191042
 2493 Fit       0.206193
 2494 Fit       0.197379
 2495 Fit       0.209135
 2496 Fit       0.218371
 2497 Fit       0.206487
 2498 Fit       0.217699
 2499 Fit       0.200667
 2500 Fit       0.190219
 2501 Fit       0.196608
 2502 Fit       0.210160
 2503 Fit       0.191935
 2504 Fit       0.183948
 2505 Fit       0.184134
 2506 Fit       0.192067
 2507 Fit       0.203865
 2508 Fit       0.189903
 2509 Fit       0.184189
 2510 Fit       0.184865
 2511 Fit       0.191270
 2512 Fit       0.201645
 2513 Fit       0.185872
 2514 Fit       0.183250
 2515 Fit       0.188379
 2516 Fit       0.201401
 2517 Fit       0.184968
 2518 Fit       0.183082
 2519 Fit       0.188888
 2520 Fit       0.203172
 2521 Fit       0.189928
 2522 Fit       0.191316
 2523 Fit       0.204782
 2524 Fit       0.206911
 2525 Fit       0.238527
 2526 Fit       0.233920
 2527 Fit       0.222530
 2528 Fit       0.216822
 2529 Fit       0.216016
 2530 Fit       0.217584
 2531 Fit       0.226669
 2532 Fit       0.219042
 2533 Fit       0.210395
 2534 Fit       0.208048
 2535 Fit       0.212750
 2536 Fit       0.211236
 2537 Fit       0.217208
 2538 Fit       0.216449
 2539 Fit       0.217961
 2540 Fit       0.212004
 2541 Fit       0.205267
 2542 Fit       0.206951
 2543 Fit       0.211692
 2544 Fit       0.209618
 2545 Fit       0.201862
 2546 Fit       0.202057
 2547 Fit       0.211083
 2548 Fit       0.204139
 2549 Fit       0.207763
 2550 Fit       0.214262
 2551 Fit       0.230179
 2552 Fit       0.202058
 2553 Fit       0.200607
 2554 Fit       0.206801
 2555 Fit       0.217571
 2556 Fit       0.228432
 2557 Fit       0.238921
 2558 Fit       0.211298
 2559 Fit       0.200395
 2560 Fit       0.201140
 2561 Fit       0.209814
 2562 Fit       0.219005
 2563 Fit       0.220750
 2564 Fit       0.210223
 2565 Fit       0.205605
 2566 Fit       0.203573
 2567 Fit       0.221650
 2568 Fit       0.208879
 2569 Fit       0.207484
 2570 Fit       0.215051
 2571 Fit       0.156902
 2572 Fit       0.162617
 2573 Fit       0.156348
 2574 Fit       0.158483
 2575 Fit       0.162205
 2576 Fit       0.163628
 2577 Fit       0.169221
 2578 Fit       0.172052
 2579 Fit       0.171496
 2580 Fit       0.146250
 2581 Fit       0.148783
 2582 Fit       0.163323
 2583 Fit       0.143315
 2584 Fit       0.148943
 2585 Fit       0.132837
 2586 Fit       0.130983
 2587 Fit       0.117194
 2588 Fit       0.111268
 2589 Fit       0.098816
 2590 Fit       0.126482
 2591 Fit       0.123416
 2592 Fit       0.113568
 2593 Fit       0.100316
 2594 Fit       0.084145
 2595 Fit       0.124620
 2596 Fit       0.122444
 2597 Fit       0.113261
 2598 Fit       0.100287
 2599 Fit       0.084247
 2600 Fit       0.114598
 2601 Fit       0.110180
 2602 Fit       0.098614
 2603 Fit       0.100803
 2604 Fit       0.076279
 2605 Fit       0.079527
 2606 Fit       0.082608
 2607 Fit       0.074407
 2608 Fit       0.078443
 2609 Fit       0.081023
 2610 Fit       0.084826
 2611 Fit       0.074038
 2612 Fit       0.078253
 2613 Fit       0.080815
 2614 Fit       0.084367
 2615 Fit       0.075412
 2616 Fit       0.078978
 2617 Fit       0.081748
 2618 Fit       0.078697
 2619 Fit       0.083243
 2620 Fit       0.083353
 2621 Fit       0.086928
 2622 Fit       0.084029
 2623 Fit       0.082490
 2624 Fit       0.083336
 2625 Fit       0.086387
 2626 Fit       0.084026
 2627 Fit       0.082576
 2628 Fit       0.083182
 2629 Fit       0.086075
 2630 Fit       0.092980
 2631 Fit       0.084239
 2632 Fit       0.082553
 2633 Fit       0.082895
 2634 Fit       0.085949
 2635 Fit       0.084886
 2636 Fit       0.082468
 2637 Fit       0.084859
 2638 Fit       0.088512
 2639 Fit       0.085922
 2640 Fit       0.085296
 2641 Fit       0.084490
 2642 Fit       0.089920
 2643 Fit       0.086510
 2644 Fit       0.085650
 2645 Fit       0.085737
 2646 Fit       0.084806
 2647 Fit       0.090047
 2648 Fit       0.086468
 2649 Fit       0.085524
 2650 Fit       0.085526
 2651 Fit       0.084412
 2652 Fit       0.088717
 2653 Fit       0.085728
 2654 Fit       0.084839
 2655 Fit       0.083605
 -----------------------------------------------------------------
 Leave Link  602 at Mon Jun 19 14:51:07 2023, MaxMem=   104857600 cpu:               1.7 elap:               0.2

 Test job not archived.
 1\1\GINC-PPCP72496\SP\RHF\6-31G(d)\C29H29F3N6O1(2+)\PCZBF\19-Jun-2023\
 0\\#n HF 6-31G* POP(MK) IOP(6/33=2) scf=direct\\gbsa/resp/1-1_opt.log\
 \2,1\C,0,-6.11338,3.04782,-0.03348\C,0,-4.60774,3.02209,0.02247\C,0,-3
 .87054,4.19955,0.00726\C,0,-2.49019,4.19107,0.06291\C,0,-1.80509,2.983
 ,0.11716\C,0,-0.32157,3.03675,0.17358\O,0,0.28877,3.9858,0.56565\N,0,0
 .33634,1.89594,-0.28759\C,0,1.69127,1.66345,-0.31814\C,0,2.65845,2.562
 27,0.13903\C,0,3.99389,2.22306,0.05973\C,0,4.43422,1.00342,-0.43698\C,
 0,5.90836,0.73649,-0.50539\N,0,6.54923,0.46321,0.87962\C,0,8.00739,0.1
 5386,0.7661\C,0,8.25536,-1.22815,0.15354\N,0,7.24701,-2.24908,0.61491\
 C,0,7.83654,-3.63455,0.66505\C,0,6.62737,-1.84822,1.91272\C,0,5.84754,
 -0.54009,1.77251\C,0,3.45797,0.11062,-0.90749\C,0,3.84406,-1.20896,-1.
 52443\F,0,2.83188,-1.95298,-1.85709\F,0,4.58482,-1.94559,-0.64071\F,0,
 4.62705,-1.06603,-2.57638\C,0,2.1242,0.43589,-0.84859\C,0,-2.52683,1.7
 9585,0.14419\C,0,-3.91436,1.80321,0.10042\C,0,-4.62671,0.55612,0.14167
 \C,0,-5.22735,-0.47244,0.17446\C,0,-5.93562,-1.69896,0.2141\C,0,-5.510
 87,-2.99826,0.30512\N,0,-6.53934,-3.86309,0.31166\C,0,-7.61381,-3.1194
 3,0.22554\C,0,-8.99241,-3.46991,0.18905\C,0,-9.88354,-2.46625,0.09596\
 C,0,-9.40576,-1.11327,0.03883\N,0,-8.1698,-0.78026,0.07036\N,0,-7.3057
 3,-1.79488,0.16324\H,0,-6.48059,4.06394,-0.09433\H,0,-6.53902,2.57829,
 0.84641\H,0,-6.47671,2.4963,-0.89347\H,0,-4.38711,5.14008,-0.04642\H,0
 ,-1.9395,5.11202,0.05985\H,0,-0.23352,1.21218,-0.73191\H,0,2.36501,3.5
 1407,0.5233\H,0,4.71153,2.96021,0.38222\H,0,6.44669,1.60278,-0.86415\H
 ,0,6.16241,-0.09456,-1.13651\H,0,6.48278,1.34827,1.3581\H,0,8.43067,0.
 22392,1.75777\H,0,8.47686,0.9082,0.1512\H,0,9.23497,-1.56521,0.45904\H
 ,0,8.2303,-1.21376,-0.92551\H,0,6.50157,-2.28949,-0.06556\H,0,8.57928,
 -3.667,1.44737\H,0,8.28683,-3.84897,-0.29235\H,0,7.04276,-4.33718,0.86
 653\H,0,7.42289,-1.78236,2.64075\H,0,5.94904,-2.62932,2.22355\H,0,5.74
 057,-0.09486,2.75065\H,0,4.8655,-0.70388,1.36954\H,0,1.39602,-0.2576,-
 1.22262\H,0,-2.03836,0.84321,0.24119\H,0,-4.49594,-3.3332,0.36671\H,0,
 -9.26853,-4.5053,0.23647\H,0,-10.94052,-2.64784,0.06325\H,0,-10.09893,
 -0.29708,-0.03566\\Version=ES64L-G16RevA.03\State=1-A\HF=-1814.3555067
 \RMSD=3.814e-09\Dipole=19.570911,-2.4714733,2.1703478\Quadrupole=251.8
 034052,-114.1080206,-137.6953845,-47.5471174,37.3508632,-7.5518991\PG=
 C01 [X(C29H29F3N6O1)]\\@


 KNOWING HOW CONTENTED, FREE, AND JOYFUL IS LIFE IN
 THE REALMS OF SCIENCE, ONE FERVENTLY WISHES THAT
 MANY WOULD ENTER HER PORTALS.
   --  DMITRI IVANOVICH MENDELEEV
 "FIRST PRINCIPLES OF CHEMISTRY", LONGMANS, GREEN,
 AND CO.  LONDON, 1891
 Job cpu time:       0 days  0 hours 10 minutes 22.8 seconds.
 Elapsed time:       0 days  0 hours  1 minutes 19.9 seconds.
 File lengths (MBytes):  RWF=    227 Int=      0 D2E=      0 Chk=     25 Scr=      1
 Normal termination of Gaussian 16 at Mon Jun 19 14:51:07 2023.
